title = "dataset transp-updrld"
variables = "x", "y", "z", "h_w", "p_w", "s_w", "theta_a", "s_a", "theta_g", "q_root"
zone t = "Flow variables, solution time =  1.500E+02 days        " i =   30, j =   30, k =    1,  f=point
  0.000000E+000  0.000000E+000  0.000000E+000 -0.100000E+003 -0.100000E+003  0.214462E+000  0.115809E+000  0.785538E+000  0.424191E+000  0.000000E+000
  0.344828E-001  0.000000E+000  0.000000E+000 -0.100000E+003 -0.100000E+003  0.214462E+000  0.115809E+000  0.785538E+000  0.424191E+000  0.000000E+000
  0.689655E-001  0.000000E+000  0.000000E+000 -0.100000E+003 -0.100000E+003  0.214462E+000  0.115809E+000  0.785538E+000  0.424191E+000  0.000000E+000
  0.103448E+000  0.000000E+000  0.000000E+000 -0.100000E+003 -0.100000E+003  0.214462E+000  0.115809E+000  0.785538E+000  0.424191E+000  0.000000E+000
  0.137931E+000  0.000000E+000  0.000000E+000 -0.100000E+003 -0.100000E+003  0.214462E+000  0.115809E+000  0.785538E+000  0.424191E+000  0.000000E+000
  0.172414E+000  0.000000E+000  0.000000E+000 -0.100000E+003 -0.100000E+003  0.214462E+000  0.115809E+000  0.785538E+000  0.424191E+000  0.000000E+000
  0.206897E+000  0.000000E+000  0.000000E+000 -0.100000E+003 -0.100000E+003  0.214462E+000  0.115809E+000  0.785538E+000  0.424191E+000  0.000000E+000
  0.241379E+000  0.000000E+000  0.000000E+000 -0.100000E+003 -0.100000E+003  0.214462E+000  0.115809E+000  0.785538E+000  0.424191E+000  0.000000E+000
  0.275862E+000  0.000000E+000  0.000000E+000 -0.100000E+003 -0.100000E+003  0.214462E+000  0.115809E+000  0.785538E+000  0.424191E+000  0.000000E+000
  0.310345E+000  0.000000E+000  0.000000E+000 -0.100000E+003 -0.100000E+003  0.214462E+000  0.115809E+000  0.785538E+000  0.424191E+000  0.000000E+000
  0.344828E+000  0.000000E+000  0.000000E+000 -0.100000E+003 -0.100000E+003  0.214462E+000  0.115809E+000  0.785538E+000  0.424191E+000  0.000000E+000
  0.379310E+000  0.000000E+000  0.000000E+000 -0.100000E+003 -0.100000E+003  0.214462E+000  0.115809E+000  0.785538E+000  0.424191E+000  0.000000E+000
  0.413793E+000  0.000000E+000  0.000000E+000 -0.100000E+003 -0.100000E+003  0.214462E+000  0.115809E+000  0.785538E+000  0.424191E+000  0.000000E+000
  0.448276E+000  0.000000E+000  0.000000E+000 -0.100000E+003 -0.100000E+003  0.214462E+000  0.115809E+000  0.785538E+000  0.424191E+000  0.000000E+000
  0.482759E+000  0.000000E+000  0.000000E+000 -0.100000E+003 -0.100000E+003  0.214462E+000  0.115809E+000  0.785538E+000  0.424191E+000  0.000000E+000
  0.517241E+000  0.000000E+000  0.000000E+000 -0.100000E+003 -0.100000E+003  0.214462E+000  0.115809E+000  0.785538E+000  0.424191E+000  0.000000E+000
  0.551724E+000  0.000000E+000  0.000000E+000 -0.100000E+003 -0.100000E+003  0.214462E+000  0.115809E+000  0.785538E+000  0.424191E+000  0.000000E+000
  0.586207E+000  0.000000E+000  0.000000E+000 -0.100000E+003 -0.100000E+003  0.214462E+000  0.115809E+000  0.785538E+000  0.424191E+000  0.000000E+000
  0.620690E+000  0.000000E+000  0.000000E+000 -0.100000E+003 -0.100000E+003  0.214462E+000  0.115809E+000  0.785538E+000  0.424191E+000  0.000000E+000
  0.655172E+000  0.000000E+000  0.000000E+000 -0.100000E+003 -0.100000E+003  0.214462E+000  0.115809E+000  0.785538E+000  0.424191E+000  0.000000E+000
  0.689655E+000  0.000000E+000  0.000000E+000 -0.100000E+003 -0.100000E+003  0.214462E+000  0.115809E+000  0.785538E+000  0.424191E+000  0.000000E+000
  0.724138E+000  0.000000E+000  0.000000E+000 -0.100000E+003 -0.100000E+003  0.214462E+000  0.115809E+000  0.785538E+000  0.424191E+000  0.000000E+000
  0.758621E+000  0.000000E+000  0.000000E+000 -0.100000E+003 -0.100000E+003  0.214462E+000  0.115809E+000  0.785538E+000  0.424191E+000  0.000000E+000
  0.793103E+000  0.000000E+000  0.000000E+000 -0.100000E+003 -0.100000E+003  0.214462E+000  0.115809E+000  0.785538E+000  0.424191E+000  0.000000E+000
  0.827586E+000  0.000000E+000  0.000000E+000 -0.100000E+003 -0.100000E+003  0.214462E+000  0.115809E+000  0.785538E+000  0.424191E+000  0.000000E+000
  0.862069E+000  0.000000E+000  0.000000E+000 -0.100000E+003 -0.100000E+003  0.214462E+000  0.115809E+000  0.785538E+000  0.424191E+000  0.000000E+000
  0.896552E+000  0.000000E+000  0.000000E+000 -0.100000E+003 -0.100000E+003  0.214462E+000  0.115809E+000  0.785538E+000  0.424191E+000  0.000000E+000
  0.931034E+000  0.000000E+000  0.000000E+000 -0.100000E+003 -0.100000E+003  0.214462E+000  0.115809E+000  0.785538E+000  0.424191E+000  0.000000E+000
  0.965517E+000  0.000000E+000  0.000000E+000 -0.100000E+003 -0.100000E+003  0.214462E+000  0.115809E+000  0.785538E+000  0.424191E+000  0.000000E+000
  0.100000E+001  0.000000E+000  0.000000E+000 -0.100000E+003 -0.100000E+003  0.214462E+000  0.115809E+000  0.785538E+000  0.424191E+000  0.000000E+000
  0.000000E+000  0.000000E+000  0.344828E-001 -0.421877E+002 -0.422222E+002  0.254391E+000  0.137371E+000  0.745609E+000  0.402629E+000  0.000000E+000
  0.344828E-001  0.000000E+000  0.344828E-001 -0.422054E+002 -0.422399E+002  0.254367E+000  0.137358E+000  0.745633E+000  0.402642E+000  0.000000E+000
  0.689655E-001  0.000000E+000  0.344828E-001 -0.422578E+002 -0.422923E+002  0.254294E+000  0.137319E+000  0.745706E+000  0.402681E+000  0.000000E+000
  0.103448E+000  0.000000E+000  0.344828E-001 -0.423430E+002 -0.423774E+002  0.254177E+000  0.137256E+000  0.745823E+000  0.402744E+000  0.000000E+000
  0.137931E+000  0.000000E+000  0.344828E-001 -0.424579E+002 -0.424924E+002  0.254020E+000  0.137171E+000  0.745980E+000  0.402829E+000  0.000000E+000
  0.172414E+000  0.000000E+000  0.344828E-001 -0.425982E+002 -0.426327E+002  0.253828E+000  0.137067E+000  0.746172E+000  0.402933E+000  0.000000E+000
  0.206897E+000  0.000000E+000  0.344828E-001 -0.427583E+002 -0.427928E+002  0.253611E+000  0.136950E+000  0.746389E+000  0.403050E+000  0.000000E+000
  0.241379E+000  0.000000E+000  0.344828E-001 -0.429309E+002 -0.429654E+002  0.253379E+000  0.136825E+000  0.746621E+000  0.403175E+000  0.000000E+000
  0.275862E+000  0.000000E+000  0.344828E-001 -0.431075E+002 -0.431420E+002  0.253142E+000  0.136697E+000  0.746858E+000  0.403303E+000  0.000000E+000
  0.310345E+000  0.000000E+000  0.344828E-001 -0.432782E+002 -0.433127E+002  0.252915E+000  0.136574E+000  0.747085E+000  0.403426E+000  0.000000E+000
  0.344828E+000  0.000000E+000  0.344828E-001 -0.434325E+002 -0.434669E+002  0.252711E+000  0.136464E+000  0.747289E+000  0.403536E+000  0.000000E+000
  0.379310E+000  0.000000E+000  0.344828E-001 -0.435593E+002 -0.435938E+002  0.252544E+000  0.136374E+000  0.747456E+000  0.403626E+000  0.000000E+000
  0.413793E+000  0.000000E+000  0.344828E-001 -0.436486E+002 -0.436831E+002  0.252427E+000  0.136310E+000  0.747573E+000  0.403690E+000  0.000000E+000
  0.448276E+000  0.000000E+000  0.344828E-001 -0.436922E+002 -0.437266E+002  0.252370E+000  0.136280E+000  0.747630E+000  0.403720E+000  0.000000E+000
  0.482759E+000  0.000000E+000  0.344828E-001 -0.436844E+002 -0.437189E+002  0.252380E+000  0.136285E+000  0.747620E+000  0.403715E+000  0.000000E+000
  0.517241E+000  0.000000E+000  0.344828E-001 -0.436243E+002 -0.436587E+002  0.252459E+000  0.136328E+000  0.747541E+000  0.403672E+000  0.000000E+000
  0.551724E+000  0.000000E+000  0.344828E-001 -0.435145E+002 -0.435490E+002  0.252603E+000  0.136406E+000  0.747397E+000  0.403594E+000  0.000000E+000
  0.586207E+000  0.000000E+000  0.344828E-001 -0.433616E+002 -0.433961E+002  0.252805E+000  0.136514E+000  0.747195E+000  0.403486E+000  0.000000E+000
  0.620690E+000  0.000000E+000  0.344828E-001 -0.431746E+002 -0.432090E+002  0.253053E+000  0.136649E+000  0.746947E+000  0.403351E+000  0.000000E+000
  0.655172E+000  0.000000E+000  0.344828E-001 -0.429637E+002 -0.429982E+002  0.253335E+000  0.136801E+000  0.746665E+000  0.403199E+000  0.000000E+000
  0.689655E+000  0.000000E+000  0.344828E-001 -0.427399E+002 -0.427744E+002  0.253636E+000  0.136964E+000  0.746364E+000  0.403036E+000  0.000000E+000
  0.724138E+000  0.000000E+000  0.344828E-001 -0.425134E+002 -0.425479E+002  0.253944E+000  0.137130E+000  0.746056E+000  0.402870E+000  0.000000E+000
  0.758621E+000  0.000000E+000  0.344828E-001 -0.422936E+002 -0.423281E+002  0.254245E+000  0.137292E+000  0.745755E+000  0.402708E+000  0.000000E+000
  0.793103E+000  0.000000E+000  0.344828E-001 -0.420885E+002 -0.421230E+002  0.254528E+000  0.137445E+000  0.745472E+000  0.402555E+000  0.000000E+000
  0.827586E+000  0.000000E+000  0.344828E-001 -0.419048E+002 -0.419393E+002  0.254784E+000  0.137583E+000  0.745216E+000  0.402417E+000  0.000000E+000
  0.862069E+000  0.000000E+000  0.344828E-001 -0.417478E+002 -0.417823E+002  0.255003E+000  0.137702E+000  0.744997E+000  0.402298E+000  0.000000E+000
  0.896552E+000  0.000000E+000  0.344828E-001 -0.416216E+002 -0.416561E+002  0.255181E+000  0.137798E+000  0.744819E+000  0.402202E+000  0.000000E+000
  0.931034E+000  0.000000E+000  0.344828E-001 -0.415293E+002 -0.415638E+002  0.255311E+000  0.137868E+000  0.744689E+000  0.402132E+000  0.000000E+000
  0.965517E+000  0.000000E+000  0.344828E-001 -0.414730E+002 -0.415075E+002  0.255391E+000  0.137911E+000  0.744609E+000  0.402089E+000  0.000000E+000
  0.100000E+001  0.000000E+000  0.344828E-001 -0.414541E+002 -0.414886E+002  0.255418E+000  0.137925E+000  0.744582E+000  0.402075E+000  0.000000E+000
  0.000000E+000  0.000000E+000  0.689655E-001 -0.278414E+002 -0.279104E+002  0.281500E+000  0.152010E+000  0.718500E+000  0.387990E+000  0.000000E+000
  0.344828E-001  0.000000E+000  0.689655E-001 -0.278565E+002 -0.279254E+002  0.281461E+000  0.151989E+000  0.718539E+000  0.388011E+000  0.000000E+000
  0.689655E-001  0.000000E+000  0.689655E-001 -0.279010E+002 -0.279700E+002  0.281344E+000  0.151926E+000  0.718656E+000  0.388074E+000  0.000000E+000
  0.103448E+000  0.000000E+000  0.689655E-001 -0.279735E+002 -0.280425E+002  0.281155E+000  0.151824E+000  0.718845E+000  0.388176E+000  0.000000E+000
  0.137931E+000  0.000000E+000  0.689655E-001 -0.280714E+002 -0.281403E+002  0.280901E+000  0.151686E+000  0.719099E+000  0.388314E+000  0.000000E+000
  0.172414E+000  0.000000E+000  0.689655E-001 -0.281909E+002 -0.282599E+002  0.280592E+000  0.151520E+000  0.719408E+000  0.388480E+000  0.000000E+000
  0.206897E+000  0.000000E+000  0.689655E-001 -0.283273E+002 -0.283962E+002  0.280242E+000  0.151331E+000  0.719758E+000  0.388669E+000  0.000000E+000
  0.241379E+000  0.000000E+000  0.689655E-001 -0.284744E+002 -0.285433E+002  0.279868E+000  0.151129E+000  0.720132E+000  0.388871E+000  0.000000E+000
  0.275862E+000  0.000000E+000  0.689655E-001 -0.286249E+002 -0.286939E+002  0.279488E+000  0.150924E+000  0.720512E+000  0.389076E+000  0.000000E+000
  0.310345E+000  0.000000E+000  0.689655E-001 -0.287705E+002 -0.288395E+002  0.279124E+000  0.150727E+000  0.720876E+000  0.389273E+000  0.000000E+000
  0.344828E+000  0.000000E+000  0.689655E-001 -0.289021E+002 -0.289710E+002  0.278797E+000  0.150550E+000  0.721203E+000  0.389450E+000  0.000000E+000
  0.379310E+000  0.000000E+000  0.689655E-001 -0.290103E+002 -0.290792E+002  0.278529E+000  0.150406E+000  0.721471E+000  0.389594E+000  0.000000E+000
  0.413793E+000  0.000000E+000  0.689655E-001 -0.290864E+002 -0.291554E+002  0.278342E+000  0.150305E+000  0.721658E+000  0.389695E+000  0.000000E+000
  0.448276E+000  0.000000E+000  0.689655E-001 -0.291235E+002 -0.291924E+002  0.278252E+000  0.150256E+000  0.721748E+000  0.389744E+000  0.000000E+000
  0.482759E+000  0.000000E+000  0.689655E-001 -0.291168E+002 -0.291857E+002  0.278268E+000  0.150265E+000  0.721732E+000  0.389735E+000  0.000000E+000
  0.517241E+000  0.000000E+000  0.689655E-001 -0.290652E+002 -0.291342E+002  0.278394E+000  0.150333E+000  0.721606E+000  0.389667E+000  0.000000E+000
  0.551724E+000  0.000000E+000  0.689655E-001 -0.289715E+002 -0.290404E+002  0.278625E+000  0.150458E+000  0.721375E+000  0.389542E+000  0.000000E+000
  0.586207E+000  0.000000E+000  0.689655E-001 -0.288409E+002 -0.289099E+002  0.278948E+000  0.150632E+000  0.721052E+000  0.389368E+000  0.000000E+000
  0.620690E+000  0.000000E+000  0.689655E-001 -0.286812E+002 -0.287502E+002  0.279347E+000  0.150847E+000  0.720653E+000  0.389153E+000  0.000000E+000
  0.655172E+000  0.000000E+000  0.689655E-001 -0.285014E+002 -0.285703E+002  0.279800E+000  0.151092E+000  0.720200E+000  0.388908E+000  0.000000E+000
  0.689655E+000  0.000000E+000  0.689655E-001 -0.283106E+002 -0.283795E+002  0.280285E+000  0.151354E+000  0.719715E+000  0.388646E+000  0.000000E+000
  0.724138E+000  0.000000E+000  0.689655E-001 -0.281176E+002 -0.281866E+002  0.280781E+000  0.151622E+000  0.719219E+000  0.388378E+000  0.000000E+000
  0.758621E+000  0.000000E+000  0.689655E-001 -0.279305E+002 -0.279995E+002  0.281267E+000  0.151884E+000  0.718733E+000  0.388116E+000  0.000000E+000
  0.793103E+000  0.000000E+000  0.689655E-001 -0.277560E+002 -0.278250E+002  0.281725E+000  0.152131E+000  0.718275E+000  0.387869E+000  0.000000E+000
  0.827586E+000  0.000000E+000  0.689655E-001 -0.275998E+002 -0.276688E+002  0.282138E+000  0.152355E+000  0.717862E+000  0.387645E+000  0.000000E+000
  0.862069E+000  0.000000E+000  0.689655E-001 -0.274664E+002 -0.275354E+002  0.282495E+000  0.152547E+000  0.717505E+000  0.387453E+000  0.000000E+000
  0.896552E+000  0.000000E+000  0.689655E-001 -0.273592E+002 -0.274282E+002  0.282783E+000  0.152703E+000  0.717217E+000  0.387297E+000  0.000000E+000
  0.931034E+000  0.000000E+000  0.689655E-001 -0.272809E+002 -0.273498E+002  0.282994E+000  0.152817E+000  0.717006E+000  0.387183E+000  0.000000E+000
  0.965517E+000  0.000000E+000  0.689655E-001 -0.272331E+002 -0.273021E+002  0.283124E+000  0.152887E+000  0.716876E+000  0.387113E+000  0.000000E+000
  0.100000E+001  0.000000E+000  0.689655E-001 -0.272171E+002 -0.272860E+002  0.283167E+000  0.152910E+000  0.716833E+000  0.387090E+000  0.000000E+000
  0.000000E+000  0.000000E+000  0.103448E+000 -0.216167E+002 -0.217201E+002  0.301182E+000  0.162638E+000  0.698818E+000  0.377362E+000  0.000000E+000
  0.344828E-001  0.000000E+000  0.103448E+000 -0.216292E+002 -0.217327E+002  0.301134E+000  0.162612E+000  0.698866E+000  0.377388E+000  0.000000E+000
  0.689655E-001  0.000000E+000  0.103448E+000 -0.216663E+002 -0.217697E+002  0.300991E+000  0.162535E+000  0.699009E+000  0.377465E+000  0.000000E+000
  0.103448E+000  0.000000E+000  0.103448E+000 -0.217266E+002 -0.218301E+002  0.300759E+000  0.162410E+000  0.699241E+000  0.377590E+000  0.000000E+000
  0.137931E+000  0.000000E+000  0.103448E+000 -0.218080E+002 -0.219115E+002  0.300447E+000  0.162242E+000  0.699553E+000  0.377758E+000  0.000000E+000
  0.172414E+000  0.000000E+000  0.103448E+000 -0.219074E+002 -0.220109E+002  0.300070E+000  0.162038E+000  0.699930E+000  0.377962E+000  0.000000E+000
  0.206897E+000  0.000000E+000  0.103448E+000 -0.220208E+002 -0.221242E+002  0.299642E+000  0.161807E+000  0.700358E+000  0.378193E+000  0.000000E+000
  0.241379E+000  0.000000E+000  0.103448E+000 -0.221430E+002 -0.222465E+002  0.299185E+000  0.161560E+000  0.700815E+000  0.378440E+000  0.000000E+000
  0.275862E+000  0.000000E+000  0.103448E+000 -0.222680E+002 -0.223715E+002  0.298721E+000  0.161309E+000  0.701279E+000  0.378691E+000  0.000000E+000
  0.310345E+000  0.000000E+000  0.103448E+000 -0.223889E+002 -0.224924E+002  0.298276E+000  0.161069E+000  0.701724E+000  0.378931E+000  0.000000E+000
  0.344828E+000  0.000000E+000  0.103448E+000 -0.224981E+002 -0.226015E+002  0.297878E+000  0.160854E+000  0.702122E+000  0.379146E+000  0.000000E+000
  0.379310E+000  0.000000E+000  0.103448E+000 -0.225878E+002 -0.226913E+002  0.297553E+000  0.160678E+000  0.702447E+000  0.379322E+000  0.000000E+000
  0.413793E+000  0.000000E+000  0.103448E+000 -0.226510E+002 -0.227544E+002  0.297325E+000  0.160555E+000  0.702675E+000  0.379445E+000  0.000000E+000
  0.448276E+000  0.000000E+000  0.103448E+000 -0.226817E+002 -0.227852E+002  0.297214E+000  0.160496E+000  0.702786E+000  0.379504E+000  0.000000E+000
  0.482759E+000  0.000000E+000  0.103448E+000 -0.226762E+002 -0.227797E+002  0.297234E+000  0.160506E+000  0.702766E+000  0.379494E+000  0.000000E+000
  0.517241E+000  0.000000E+000  0.103448E+000 -0.226337E+002 -0.227371E+002  0.297387E+000  0.160589E+000  0.702613E+000  0.379411E+000  0.000000E+000
  0.551724E+000  0.000000E+000  0.103448E+000 -0.225560E+002 -0.226594E+002  0.297668E+000  0.160741E+000  0.702332E+000  0.379259E+000  0.000000E+000
  0.586207E+000  0.000000E+000  0.103448E+000 -0.224478E+002 -0.225513E+002  0.298061E+000  0.160953E+000  0.701939E+000  0.379047E+000  0.000000E+000
  0.620690E+000  0.000000E+000  0.103448E+000 -0.223154E+002 -0.224189E+002  0.298546E+000  0.161215E+000  0.701454E+000  0.378785E+000  0.000000E+000
  0.655172E+000  0.000000E+000  0.103448E+000 -0.221662E+002 -0.222697E+002  0.299098E+000  0.161513E+000  0.700902E+000  0.378487E+000  0.000000E+000
  0.689655E+000  0.000000E+000  0.103448E+000 -0.220078E+002 -0.221112E+002  0.299691E+000  0.161833E+000  0.700309E+000  0.378167E+000  0.000000E+000
  0.724138E+000  0.000000E+000  0.103448E+000 -0.218475E+002 -0.219509E+002  0.300297E+000  0.162160E+000  0.699703E+000  0.377840E+000  0.000000E+000
  0.758621E+000  0.000000E+000  0.103448E+000 -0.216919E+002 -0.217954E+002  0.300892E+000  0.162482E+000  0.699108E+000  0.377518E+000  0.000000E+000
  0.793103E+000  0.000000E+000  0.103448E+000 -0.215468E+002 -0.216502E+002  0.301453E+000  0.162785E+000  0.698547E+000  0.377215E+000  0.000000E+000
  0.827586E+000  0.000000E+000  0.103448E+000 -0.214168E+002 -0.215202E+002  0.301961E+000  0.163059E+000  0.698039E+000  0.376941E+000  0.000000E+000
  0.862069E+000  0.000000E+000  0.103448E+000 -0.213057E+002 -0.214091E+002  0.302398E+000  0.163295E+000  0.697602E+000  0.376705E+000  0.000000E+000
  0.896552E+000  0.000000E+000  0.103448E+000 -0.212164E+002 -0.213198E+002  0.302752E+000  0.163486E+000  0.697248E+000  0.376514E+000  0.000000E+000
  0.931034E+000  0.000000E+000  0.103448E+000 -0.211511E+002 -0.212546E+002  0.303013E+000  0.163627E+000  0.696987E+000  0.376373E+000  0.000000E+000
  0.965517E+000  0.000000E+000  0.103448E+000 -0.211113E+002 -0.212148E+002  0.303172E+000  0.163713E+000  0.696828E+000  0.376287E+000  0.000000E+000
  0.100000E+001  0.000000E+000  0.103448E+000 -0.210979E+002 -0.212014E+002  0.303226E+000  0.163742E+000  0.696774E+000  0.376258E+000  0.000000E+000
  0.000000E+000  0.000000E+000  0.137931E+000 -0.181138E+002 -0.182517E+002  0.316502E+000  0.170911E+000  0.683498E+000  0.369089E+000  0.000000E+000
  0.344828E-001  0.000000E+000  0.137931E+000 -0.181245E+002 -0.182624E+002  0.316447E+000  0.170882E+000  0.683553E+000  0.369118E+000  0.000000E+000
  0.689655E-001  0.000000E+000  0.137931E+000 -0.181563E+002 -0.182943E+002  0.316287E+000  0.170795E+000  0.683713E+000  0.369205E+000  0.000000E+000
  0.103448E+000  0.000000E+000  0.137931E+000 -0.182081E+002 -0.183460E+002  0.316027E+000  0.170654E+000  0.683973E+000  0.369346E+000  0.000000E+000
  0.137931E+000  0.000000E+000  0.137931E+000 -0.182779E+002 -0.184158E+002  0.315678E+000  0.170466E+000  0.684322E+000  0.369534E+000  0.000000E+000
  0.172414E+000  0.000000E+000  0.137931E+000 -0.183632E+002 -0.185011E+002  0.315254E+000  0.170237E+000  0.684746E+000  0.369763E+000  0.000000E+000
  0.206897E+000  0.000000E+000  0.137931E+000 -0.184603E+002 -0.185983E+002  0.314775E+000  0.169979E+000  0.685225E+000  0.370021E+000  0.000000E+000
  0.241379E+000  0.000000E+000  0.137931E+000 -0.185651E+002 -0.187030E+002  0.314263E+000  0.169702E+000  0.685737E+000  0.370298E+000  0.000000E+000
  0.275862E+000  0.000000E+000  0.137931E+000 -0.186722E+002 -0.188101E+002  0.313744E+000  0.169422E+000  0.686256E+000  0.370578E+000  0.000000E+000
  0.310345E+000  0.000000E+000  0.137931E+000 -0.187757E+002 -0.189137E+002  0.313247E+000  0.169153E+000  0.686753E+000  0.370847E+000  0.000000E+000
  0.344828E+000  0.000000E+000  0.137931E+000 -0.188692E+002 -0.190072E+002  0.312801E+000  0.168912E+000  0.687199E+000  0.371088E+000  0.000000E+000
  0.379310E+000  0.000000E+000  0.137931E+000 -0.189461E+002 -0.190841E+002  0.312437E+000  0.168716E+000  0.687563E+000  0.371284E+000  0.000000E+000
  0.413793E+000  0.000000E+000  0.137931E+000 -0.190004E+002 -0.191383E+002  0.312181E+000  0.168578E+000  0.687819E+000  0.371422E+000  0.000000E+000
  0.448276E+000  0.000000E+000  0.137931E+000 -0.190269E+002 -0.191648E+002  0.312057E+000  0.168511E+000  0.687943E+000  0.371489E+000  0.000000E+000
  0.482759E+000  0.000000E+000  0.137931E+000 -0.190225E+002 -0.191605E+002  0.312077E+000  0.168522E+000  0.687923E+000  0.371478E+000  0.000000E+000
  0.517241E+000  0.000000E+000  0.137931E+000 -0.189865E+002 -0.191244E+002  0.312247E+000  0.168613E+000  0.687753E+000  0.371387E+000  0.000000E+000
  0.551724E+000  0.000000E+000  0.137931E+000 -0.189204E+002 -0.190584E+002  0.312558E+000  0.168781E+000  0.687442E+000  0.371219E+000  0.000000E+000
  0.586207E+000  0.000000E+000  0.137931E+000 -0.188283E+002 -0.189662E+002  0.312996E+000  0.169018E+000  0.687004E+000  0.370982E+000  0.000000E+000
  0.620690E+000  0.000000E+000  0.137931E+000 -0.187153E+002 -0.188532E+002  0.313536E+000  0.169310E+000  0.686464E+000  0.370690E+000  0.000000E+000
  0.655172E+000  0.000000E+000  0.137931E+000 -0.185879E+002 -0.187258E+002  0.314152E+000  0.169642E+000  0.685848E+000  0.370358E+000  0.000000E+000
  0.689655E+000  0.000000E+000  0.137931E+000 -0.184524E+002 -0.185903E+002  0.314814E+000  0.170000E+000  0.685186E+000  0.370000E+000  0.000000E+000
  0.724138E+000  0.000000E+000  0.137931E+000 -0.183152E+002 -0.184532E+002  0.315492E+000  0.170366E+000  0.684508E+000  0.369634E+000  0.000000E+000
  0.758621E+000  0.000000E+000  0.137931E+000 -0.181820E+002 -0.183199E+002  0.316158E+000  0.170725E+000  0.683842E+000  0.369275E+000  0.000000E+000
  0.793103E+000  0.000000E+000  0.137931E+000 -0.180576E+002 -0.181956E+002  0.316786E+000  0.171064E+000  0.683214E+000  0.368936E+000  0.000000E+000
  0.827586E+000  0.000000E+000  0.137931E+000 -0.179461E+002 -0.180841E+002  0.317355E+000  0.171372E+000  0.682645E+000  0.368628E+000  0.000000E+000
  0.862069E+000  0.000000E+000  0.137931E+000 -0.178508E+002 -0.179887E+002  0.317846E+000  0.171637E+000  0.682154E+000  0.368363E+000  0.000000E+000
  0.896552E+000  0.000000E+000  0.137931E+000 -0.177742E+002 -0.179121E+002  0.318243E+000  0.171851E+000  0.681757E+000  0.368149E+000  0.000000E+000
  0.931034E+000  0.000000E+000  0.137931E+000 -0.177181E+002 -0.178560E+002  0.318535E+000  0.172009E+000  0.681465E+000  0.367991E+000  0.000000E+000
  0.965517E+000  0.000000E+000  0.137931E+000 -0.176839E+002 -0.178219E+002  0.318714E+000  0.172106E+000  0.681286E+000  0.367894E+000  0.000000E+000
  0.100000E+001  0.000000E+000  0.137931E+000 -0.176724E+002 -0.178104E+002  0.318775E+000  0.172138E+000  0.681225E+000  0.367862E+000  0.000000E+000
  0.000000E+000  0.000000E+000  0.172414E+000 -0.158401E+002 -0.160125E+002  0.329009E+000  0.177665E+000  0.670991E+000  0.362335E+000  0.000000E+000
  0.344828E-001  0.000000E+000  0.172414E+000 -0.158497E+002 -0.160221E+002  0.328950E+000  0.177633E+000  0.671050E+000  0.362367E+000  0.000000E+000
  0.689655E-001  0.000000E+000  0.172414E+000 -0.158779E+002 -0.160503E+002  0.328776E+000  0.177539E+000  0.671224E+000  0.362461E+000  0.000000E+000
  0.103448E+000  0.000000E+000  0.172414E+000 -0.159238E+002 -0.160962E+002  0.328494E+000  0.177387E+000  0.671506E+000  0.362613E+000  0.000000E+000
  0.137931E+000  0.000000E+000  0.172414E+000 -0.159857E+002 -0.161582E+002  0.328115E+000  0.177182E+000  0.671885E+000  0.362818E+000  0.000000E+000
  0.172414E+000  0.000000E+000  0.172414E+000 -0.160614E+002 -0.162338E+002  0.327656E+000  0.176934E+000  0.672344E+000  0.363066E+000  0.000000E+000
  0.206897E+000  0.000000E+000  0.172414E+000 -0.161476E+002 -0.163200E+002  0.327137E+000  0.176654E+000  0.672863E+000  0.363346E+000  0.000000E+000
  0.241379E+000  0.000000E+000  0.172414E+000 -0.162406E+002 -0.164130E+002  0.326581E+000  0.176354E+000  0.673419E+000  0.363646E+000  0.000000E+000
  0.275862E+000  0.000000E+000  0.172414E+000 -0.163357E+002 -0.165081E+002  0.326018E+000  0.176050E+000  0.673982E+000  0.363950E+000  0.000000E+000
  0.310345E+000  0.000000E+000  0.172414E+000 -0.164277E+002 -0.166001E+002  0.325477E+000  0.175758E+000  0.674523E+000  0.364242E+000  0.000000E+000
  0.344828E+000  0.000000E+000  0.172414E+000 -0.165109E+002 -0.166833E+002  0.324993E+000  0.175496E+000  0.675007E+000  0.364504E+000  0.000000E+000
  0.379310E+000  0.000000E+000  0.172414E+000 -0.165794E+002 -0.167519E+002  0.324596E+000  0.175282E+000  0.675404E+000  0.364718E+000  0.000000E+000
  0.413793E+000  0.000000E+000  0.172414E+000 -0.166280E+002 -0.168004E+002  0.324317E+000  0.175131E+000  0.675683E+000  0.364869E+000  0.000000E+000
  0.448276E+000  0.000000E+000  0.172414E+000 -0.166520E+002 -0.168244E+002  0.324180E+000  0.175057E+000  0.675820E+000  0.364943E+000  0.000000E+000
  0.482759E+000  0.000000E+000  0.172414E+000 -0.166487E+002 -0.168211E+002  0.324199E+000  0.175067E+000  0.675801E+000  0.364933E+000  0.000000E+000
  0.517241E+000  0.000000E+000  0.172414E+000 -0.166172E+002 -0.167897E+002  0.324379E+000  0.175165E+000  0.675621E+000  0.364835E+000  0.000000E+000
  0.551724E+000  0.000000E+000  0.172414E+000 -0.165592E+002 -0.167316E+002  0.324713E+000  0.175345E+000  0.675287E+000  0.364655E+000  0.000000E+000
  0.586207E+000  0.000000E+000  0.172414E+000 -0.164780E+002 -0.166504E+002  0.325184E+000  0.175599E+000  0.674816E+000  0.364401E+000  0.000000E+000
  0.620690E+000  0.000000E+000  0.172414E+000 -0.163784E+002 -0.165508E+002  0.325767E+000  0.175914E+000  0.674233E+000  0.364086E+000  0.000000E+000
  0.655172E+000  0.000000E+000  0.172414E+000 -0.162658E+002 -0.164382E+002  0.326431E+000  0.176273E+000  0.673569E+000  0.363727E+000  0.000000E+000
  0.689655E+000  0.000000E+000  0.172414E+000 -0.161461E+002 -0.163185E+002  0.327146E+000  0.176659E+000  0.672854E+000  0.363341E+000  0.000000E+000
  0.724138E+000  0.000000E+000  0.172414E+000 -0.160248E+002 -0.161972E+002  0.327878E+000  0.177054E+000  0.672122E+000  0.362946E+000  0.000000E+000
  0.758621E+000  0.000000E+000  0.172414E+000 -0.159069E+002 -0.160793E+002  0.328598E+000  0.177443E+000  0.671402E+000  0.362557E+000  0.000000E+000
  0.793103E+000  0.000000E+000  0.172414E+000 -0.157968E+002 -0.159692E+002  0.329277E+000  0.177810E+000  0.670723E+000  0.362190E+000  0.000000E+000
  0.827586E+000  0.000000E+000  0.172414E+000 -0.156981E+002 -0.158705E+002  0.329892E+000  0.178142E+000  0.670108E+000  0.361858E+000  0.000000E+000
  0.862069E+000  0.000000E+000  0.172414E+000 -0.156137E+002 -0.157861E+002  0.330423E+000  0.178429E+000  0.669577E+000  0.361571E+000  0.000000E+000
  0.896552E+000  0.000000E+000  0.172414E+000 -0.155458E+002 -0.157182E+002  0.330853E+000  0.178661E+000  0.669147E+000  0.361339E+000  0.000000E+000
  0.931034E+000  0.000000E+000  0.172414E+000 -0.154961E+002 -0.156685E+002  0.331170E+000  0.178832E+000  0.668830E+000  0.361168E+000  0.000000E+000
  0.965517E+000  0.000000E+000  0.172414E+000 -0.154658E+002 -0.156383E+002  0.331364E+000  0.178936E+000  0.668636E+000  0.361064E+000  0.000000E+000
  0.100000E+001  0.000000E+000  0.172414E+000 -0.154557E+002 -0.156281E+002  0.331429E+000  0.178972E+000  0.668571E+000  0.361028E+000  0.000000E+000
  0.000000E+000  0.000000E+000  0.206897E+000 -0.142294E+002 -0.144363E+002  0.339548E+000  0.183356E+000  0.660452E+000  0.356644E+000  0.000000E+000
  0.344828E-001  0.000000E+000  0.206897E+000 -0.142382E+002 -0.144450E+002  0.339485E+000  0.183322E+000  0.660515E+000  0.356678E+000  0.000000E+000
  0.689655E-001  0.000000E+000  0.206897E+000 -0.142640E+002 -0.144709E+002  0.339299E+000  0.183221E+000  0.660701E+000  0.356779E+000  0.000000E+000
  0.103448E+000  0.000000E+000  0.206897E+000 -0.143060E+002 -0.145129E+002  0.338996E+000  0.183058E+000  0.661004E+000  0.356942E+000  0.000000E+000
  0.137931E+000  0.000000E+000  0.206897E+000 -0.143628E+002 -0.145697E+002  0.338590E+000  0.182839E+000  0.661410E+000  0.357161E+000  0.000000E+000
  0.172414E+000  0.000000E+000  0.206897E+000 -0.144321E+002 -0.146390E+002  0.338097E+000  0.182572E+000  0.661903E+000  0.357428E+000  0.000000E+000
  0.206897E+000  0.000000E+000  0.206897E+000 -0.145112E+002 -0.147181E+002  0.337538E+000  0.182271E+000  0.662462E+000  0.357729E+000  0.000000E+000
  0.241379E+000  0.000000E+000  0.206897E+000 -0.145966E+002 -0.148035E+002  0.336941E+000  0.181948E+000  0.663059E+000  0.358052E+000  0.000000E+000
  0.275862E+000  0.000000E+000  0.206897E+000 -0.146841E+002 -0.148910E+002  0.336334E+000  0.181620E+000  0.663666E+000  0.358380E+000  0.000000E+000
  0.310345E+000  0.000000E+000  0.206897E+000 -0.147688E+002 -0.149757E+002  0.335751E+000  0.181306E+000  0.664249E+000  0.358694E+000  0.000000E+000
  0.344828E+000  0.000000E+000  0.206897E+000 -0.148457E+002 -0.150526E+002  0.335227E+000  0.181023E+000  0.664773E+000  0.358977E+000  0.000000E+000
  0.379310E+000  0.000000E+000  0.206897E+000 -0.149092E+002 -0.151161E+002  0.334797E+000  0.180790E+000  0.665203E+000  0.359210E+000  0.000000E+000
  0.413793E+000  0.000000E+000  0.206897E+000 -0.149545E+002 -0.151614E+002  0.334492E+000  0.180626E+000  0.665508E+000  0.359374E+000  0.000000E+000
  0.448276E+000  0.000000E+000  0.206897E+000 -0.149773E+002 -0.151842E+002  0.334339E+000  0.180543E+000  0.665661E+000  0.359457E+000  0.000000E+000
  0.482759E+000  0.000000E+000  0.206897E+000 -0.149750E+002 -0.151819E+002  0.334355E+000  0.180551E+000  0.665645E+000  0.359449E+000  0.000000E+000
  0.517241E+000  0.000000E+000  0.206897E+000 -0.149468E+002 -0.151537E+002  0.334544E+000  0.180654E+000  0.665456E+000  0.359346E+000  0.000000E+000
  0.551724E+000  0.000000E+000  0.206897E+000 -0.148942E+002 -0.151011E+002  0.334898E+000  0.180845E+000  0.665102E+000  0.359155E+000  0.000000E+000