title = "dataset transp-updrld"
variables = "time", "delta t", "courant_max", "courant_num", "iter_ts","iter_vs","iter_rt", "ts_min"
zone t = "time step data", f=point
  1.00000E-10  1.00000E-10  0.00000E+00   0   1   1   0    none    
  6.00000E-10  5.00000E-10  0.00000E+00   0   1   1   0    varsat  
  3.10000E-09  2.50000E-09  0.00000E+00   0   1   1   0    varsat  
  1.56000E-08  1.25000E-08  0.00000E+00   0   1   2   0    varsat  
  7.81000E-08  6.25000E-08  0.00000E+00   0   1   2   0    varsat  
  3.90600E-07  3.12500E-07  0.00000E+00   0   1   2   0    varsat  
  1.95310E-06  1.56250E-06  0.00000E+00   0   1   2   0    varsat  
  9.76560E-06  7.81250E-06  0.00000E+00   0   1   2   0    varsat  
  4.88281E-05  3.90625E-05  0.00000E+00   0   1   3   0    varsat  
  2.44141E-04  1.95313E-04  0.00000E+00   0   1   3   0    varsat  
  1.22070E-03  9.76562E-04  0.00000E+00   0   1   3   0    varsat  
  6.10352E-03  4.88281E-03  0.00000E+00   0   1   4   0    varsat  
  3.05176E-02  2.44141E-02  0.00000E+00   0   1   5   0    varsat  
  1.52588E-01  1.22070E-01  0.00000E+00   0   1   5   0    varsat  
  5.81635E-01  4.29047E-01  0.00000E+00   0   1   6   0    varsat  
  1.00000E+00  4.18365E-01  0.00000E+00   0   1   5   0    varsat  
  2.00000E+00  1.00000E+00  0.00000E+00   0   1   9   0    varsat  
  2.59746E+00  5.97458E-01  0.00000E+00   0   1   8   0    varsat  
  3.00000E+00  4.02542E-01  0.00000E+00   0   1   5   0    varsat  
  4.00000E+00  1.00000E+00  0.00000E+00   0   1   6   0    varsat  
  5.00000E+00  1.00000E+00  0.00000E+00   0   1   5   0    varsat  
  6.00000E+00  1.00000E+00  0.00000E+00   0   1   4   0    varsat  
  7.00000E+00  1.00000E+00  0.00000E+00   0   1   4   0    varsat  
  8.00000E+00  1.00000E+00  0.00000E+00   0   1   4   0    varsat  
  9.00000E+00  1.00000E+00  0.00000E+00   0   1   4   0    varsat  
  1.00000E+01  1.00000E+00  0.00000E+00   0   1   6   0    varsat  
  1.09780E+01  9.77985E-01  0.00000E+00   0   1   4   0    varsat  
  1.10000E+01  2.20147E-02  0.00000E+00   0   1   3   0    varsat  
  1.11101E+01  1.10073E-01  0.00000E+00   0   1   4   0    varsat  
  1.16604E+01  5.50367E-01  0.00000E+00   0   1   4   0    varsat  
  1.20000E+01  3.39560E-01  0.00000E+00   0   1   3   0    varsat  
  1.30000E+01  1.00000E+00  0.00000E+00   0   1   5   0    varsat  
  1.40000E+01  1.00000E+00  0.00000E+00   0   1   4   0    varsat  
  1.50000E+01  1.00000E+00  0.00000E+00   0   1   5   0    varsat  
  1.60000E+01  1.00000E+00  0.00000E+00   0   1   4   0    varsat  
  1.70000E+01  1.00000E+00  0.00000E+00   0   1   6   0    varsat  
  1.80000E+01  1.00000E+00  0.00000E+00   0   1   6   0    varsat  
  1.90000E+01  1.00000E+00  0.00000E+00   0   1   6   0    varsat  
  2.00000E+01  1.00000E+00  0.00000E+00   0   1   6   0    varsat  
  2.10000E+01  1.00000E+00  0.00000E+00   0   1  11   0    varsat  
  2.20000E+01  1.00000E+00  0.00000E+00   0   1   6   0    varsat  
  2.30000E+01  1.00000E+00  0.00000E+00   0   1   8   0    varsat  
  2.40000E+01  1.00000E+00  0.00000E+00   0   1  12   0    varsat  
  2.50000E+01  1.00000E+00  0.00000E+00   0   1   6   0    varsat  
  2.55000E+01  5.00000E-01  0.00000E+00   0   1  13   0    varsat  
  2.59723E+01  4.72301E-01  0.00000E+00   0   1   6   0    varsat  
  2.60000E+01  2.76995E-02  0.00000E+00   0   1   4   0    varsat  
  2.61385E+01  1.38497E-01  0.00000E+00   0   1   6   0    varsat  
  2.65228E+01  3.84291E-01  0.00000E+00   0   1   5   0    varsat  
  2.70000E+01  4.77212E-01  0.00000E+00   0   1   5   0    varsat  
  2.80000E+01  1.00000E+00  0.00000E+00   0   1   6   0    varsat  
  2.90000E+01  1.00000E+00  0.00000E+00   0   1   5   0    varsat  
  3.00000E+01  1.00000E+00  0.00000E+00   0   1   5   0    varsat  
  3.10000E+01  1.00000E+00  0.00000E+00   0   1   5   0    varsat  
  3.20000E+01  1.00000E+00  0.00000E+00   0   1   5   0    varsat  
  3.30000E+01  1.00000E+00  0.00000E+00   0   1   5   0    varsat  
  3.40000E+01  1.00000E+00  0.00000E+00   0   1   5   0    varsat  
  3.50000E+01  1.00000E+00  0.00000E+00   0   1   5   0    varsat  
  3.60000E+01  1.00000E+00  0.00000E+00   0   1   6   0    varsat  
  3.70000E+01  1.00000E+00  0.00000E+00   0   1   7   0    varsat  
  3.80000E+01  1.00000E+00  0.00000E+00   0   1   8   0    varsat  
  3.90000E+01  1.00000E+00  0.00000E+00   0   1   8   0    varsat  
  4.00000E+01  1.00000E+00  0.00000E+00   0   1   7   0    varsat  
  4.10000E+01  1.00000E+00  0.00000E+00   0   1   8   0    varsat  
  4.20000E+01  1.00000E+00  0.00000E+00   0   1   8   0    varsat  
  4.30000E+01  1.00000E+00  0.00000E+00   0   1   8   0    varsat  
  4.40000E+01  1.00000E+00  0.00000E+00   0   1   8   0    varsat  
  4.50000E+01  1.00000E+00  0.00000E+00   0   1   8   0    varsat  
  4.60000E+01  1.00000E+00  0.00000E+00   0   1   8   0    varsat  
  4.70000E+01  1.00000E+00  0.00000E+00   0   1   8   0    varsat  
  4.72500E+01  2.50000E-01  0.00000E+00   0   1  13   0    varsat  
  4.74761E+01  2.26100E-01  0.00000E+00   0   1   5   0    varsat  
  4.80000E+01  5.23900E-01  0.00000E+00   0   1   6   0    varsat  
  4.90000E+01  1.00000E+00  0.00000E+00   0   1   5   0    varsat  
  5.00000E+01  1.00000E+00  0.00000E+00   0   1   6   0    varsat  
  5.10000E+01  1.00000E+00  0.00000E+00   0   1   6   0    varsat  
  5.20000E+01  1.00000E+00  0.00000E+00   0   1   6   0    varsat  
  5.30000E+01  1.00000E+00  0.00000E+00   0   1   7   0    varsat  
  5.40000E+01  1.00000E+00  0.00000E+00   0   1   6   0    varsat  
  5.50000E+01  1.00000E+00  0.00000E+00   0   1   6   0    varsat  
  5.60000E+01  1.00000E+00  0.00000E+00   0   1   7   0    varsat  
  5.70000E+01  1.00000E+00  0.00000E+00   0   1   7   0    varsat  
  5.80000E+01  1.00000E+00  0.00000E+00   0   1   8   0    varsat  
  5.90000E+01  1.00000E+00  0.00000E+00   0   1   9   0    varsat  
  6.00000E+01  1.00000E+00  0.00000E+00   0   1  11   0    varsat  
  6.10000E+01  1.00000E+00  0.00000E+00   0   1  15   0    varsat  
  6.18450E+01  8.44986E-01  0.00000E+00   0   1   8   0    varsat  
  6.20000E+01  1.55014E-01  0.00000E+00   0   1   6   0    varsat  
  6.27751E+01  7.75068E-01  0.00000E+00   0   1   9   0    varsat  
  6.30000E+01  2.24932E-01  0.00000E+00   0   1   7   0    varsat  
  6.32500E+01  2.50000E-01  0.00000E+00   0   1  14   0    varsat  
  6.33803E+01  1.30350E-01  0.00000E+00   0   1   5   0    varsat  
  6.36908E+01  3.10419E-01  0.00000E+00   0   1   6   0    varsat  
  6.40000E+01  3.09231E-01  0.00000E+00   0   1   5   0    varsat  
  6.47561E+01  7.56103E-01  0.00000E+00   0   1   6   0    varsat  
  6.50000E+01  2.43897E-01  0.00000E+00   0   1   4   0    varsat  
  6.60000E+01  1.00000E+00  0.00000E+00   0   1  11   0    varsat  
  6.66713E+01  6.71331E-01  0.00000E+00   0   1   6   0    varsat  
  6.70000E+01  3.28669E-01  0.00000E+00   0   1   4   0    varsat  
  6.80000E+01  1.00000E+00  0.00000E+00   0   1   5   0    varsat  
  6.90000E+01  1.00000E+00  0.00000E+00   0   1   5   0    varsat  
  7.00000E+01  1.00000E+00  0.00000E+00   0   1   5   0    varsat  
  7.10000E+01  1.00000E+00  0.00000E+00   0   1   5   0    varsat  
  7.20000E+01  1.00000E+00  0.00000E+00   0   1   5   0    varsat  
  7.30000E+01  1.00000E+00  0.00000E+00   0   1   5   0    varsat  
  7.40000E+01  1.00000E+00  0.00000E+00   0   1   6   0    varsat  
  7.50000E+01  1.00000E+00  0.00000E+00   0   1   6   0    varsat  
  7.60000E+01  1.00000E+00  0.00000E+00   0   1   5   0    varsat  
  7.70000E+01  1.00000E+00  0.00000E+00   0   1   4   0    varsat  
  7.80000E+01  1.00000E+00  0.00000E+00   0   1   4   0    varsat  
  7.90000E+01  1.00000E+00  0.00000E+00   0   1   5   0    varsat  
  8.00000E+01  1.00000E+00  0.00000E+00   0   1   5   0    varsat  
  8.10000E+01  1.00000E+00  0.00000E+00   0   1   6   0    varsat  
  8.20000E+01  1.00000E+00  0.00000E+00   0   1   6   0    varsat  
  8.30000E+01  1.00000E+00  0.00000E+00   0   1   8   0    varsat  
  8.40000E+01  1.00000E+00  0.00000E+00   0   1   7   0    varsat  
  8.50000E+01  1.00000E+00  0.00000E+00   0   1   7   0    varsat  
  8.60000E+01  1.00000E+00  0.00000E+00   0   1   9   0    varsat  
  8.70000E+01  1.00000E+00  0.00000E+00   0   1   8   0    varsat  
  8.80000E+01  1.00000E+00  0.00000E+00   0   1   7   0    varsat  
  8.90000E+01  1.00000E+00  0.00000E+00   0   1   7   0    varsat  
  9.00000E+01  1.00000E+00  0.00000E+00   0   1   7   0    varsat  
  9.10000E+01  1.00000E+00  0.00000E+00   0   1   7   0    varsat  
  9.20000E+01  1.00000E+00  0.00000E+00   0   1   8   0    varsat  
  9.30000E+01  1.00000E+00  0.00000E+00   0   1   7   0    varsat  
  9.40000E+01  1.00000E+00  0.00000E+00   0   1   7   0    varsat  
  9.50000E+01  1.00000E+00  0.00000E+00   0   1   7   0    varsat  
  9.60000E+01  1.00000E+00  0.00000E+00   0   1   7   0    varsat  
  9.60312E+01  3.12500E-02  0.00000E+00   0   1   8   0    varsat  
  9.60875E+01  5.62388E-02  0.00000E+00   0   1   8   0    varsat  
  9.62736E+01  1.86065E-01  0.00000E+00   0   1   9   0    varsat  
  9.68009E+01  5.27370E-01  0.00000E+00   0   1   9   0    varsat  
  9.70000E+01  1.99076E-01  0.00000E+00   0   1   6   0    varsat  
  9.79954E+01  9.95380E-01  0.00000E+00   0   1   7   0    varsat  
  9.80000E+01  4.61968E-03  0.00000E+00   0   1   3   0    varsat  
  9.80231E+01  2.30984E-02  0.00000E+00   0   1   4   0    varsat  
  9.81386E+01  1.15492E-01  0.00000E+00   0   1   5   0    varsat  
  9.87160E+01  5.77460E-01  0.00000E+00   0   1   6   0    varsat  
  9.90000E+01  2.83950E-01  0.00000E+00   0   1   5   0    varsat  
  1.00000E+02  1.00000E+00  0.00000E+00   0   1   5   0    varsat  
  1.01000E+02  1.00000E+00  0.00000E+00   0   1   7   0    varsat  
  1.02000E+02  1.00000E+00  0.00000E+00   0   1   7   0    varsat  
  1.03000E+02  1.00000E+00  0.00000E+00   0   1   8   0    varsat  
  1.04000E+02  1.00000E+00  0.00000E+00   0   1  10   0    varsat  
  1.05000E+02  1.00000E+00  0.00000E+00   0   1  10   0    varsat  
  1.06000E+02  1.00000E+00  0.00000E+00   0   1   8   0    varsat  
  1.06016E+02  1.56250E-02  0.00000E+00   0   1   6   0    varsat  
  1.06048E+02  3.22938E-02  0.00000E+00   0   1   9   0    varsat  
  1.06136E+02  8.79487E-02  0.00000E+00   0   1   8   0    varsat  
  1.06341E+02  2.05074E-01  0.00000E+00   0   1  12   0    varsat  
  1.06697E+02  3.55752E-01  0.00000E+00   0   1   9   0    varsat  
  1.07000E+02  3.03307E-01  0.00000E+00   0   1   6   0    varsat  
  1.07815E+02  8.14715E-01  0.00000E+00   0   1   9   0    varsat  
  1.08000E+02  1.85285E-01  0.00000E+00   0   1   7   0    varsat  
  1.08926E+02  9.26427E-01  0.00000E+00   0   1   9   0    varsat  
  1.09000E+02  7.35734E-02  0.00000E+00   0   1   5   0    varsat  
  1.09368E+02  3.67867E-01  0.00000E+00   0   1   7   0    varsat  
  1.10000E+02  6.32133E-01  0.00000E+00   0   1   7   0    varsat  
  1.11000E+02  1.00000E+00  0.00000E+00   0   1   8   0    varsat  
  1.12000E+02  1.00000E+00  0.00000E+00   0   1  10   0    varsat  
  1.13000E+02  1.00000E+00  0.00000E+00   0   1  10   0    varsat  
  1.14000E+02  1.00000E+00  0.00000E+00   0   1   7   0    varsat  
  1.15000E+02  1.00000E+00  0.00000E+00   0   1   7   0    varsat  
  1.16000E+02  1.00000E+00  0.00000E+00   0   1   7   0    varsat  
  1.17000E+02  1.00000E+00  0.00000E+00   0   1   9   0    varsat  
  1.18000E+02  1.00000E+00  0.00000E+00   0   1   7   0    varsat  
  1.19000E+02  1.00000E+00  0.00000E+00   0   1   7   0    varsat  
  1.20000E+02  1.00000E+00  0.00000E+00   0   1   7   0    varsat  
  1.21000E+02  1.00000E+00  0.00000E+00   0   1   9   0    varsat  
  1.22000E+02  1.00000E+00  0.00000E+00   0   1   8   0    varsat  
  1.23000E+02  1.00000E+00  0.00000E+00   0   1  10   0    varsat  
  1.24000E+02  1.00000E+00  0.00000E+00   0   1   8   0    varsat  
  1.25000E+02  1.00000E+00  0.00000E+00   0   1   7   0    varsat  
  1.26000E+02  1.00000E+00  0.00000E+00   0   1   6   0    varsat  
  1.27000E+02  1.00000E+00  0.00000E+00   0   1   6   0    varsat  
  1.28000E+02  1.00000E+00  0.00000E+00   0   1   7   0    varsat  
  1.29000E+02  1.00000E+00  0.00000E+00   0   1   6   0    varsat  
  1.30000E+02  1.00000E+00  0.00000E+00   0   1   6   0    varsat  
  1.31000E+02  1.00000E+00  0.00000E+00   0   1   6   0    varsat  
  1.32000E+02  1.00000E+00  0.00000E+00   0   1   6   0    varsat  
  1.33000E+02  1.00000E+00  0.00000E+00   0   1   6   0    varsat  
  1.33062E+02  6.25000E-02  0.00000E+00   0   1   7   0    varsat  
  1.33219E+02  1.56250E-01  0.00000E+00   0   1  10   0    varsat  
  1.33516E+02  2.96833E-01  0.00000E+00   0   1   8   0    varsat  
  1.34000E+02  4.84417E-01  0.00000E+00   0   1   7   0    varsat  
  1.34250E+02  2.50000E-01  0.00000E+00   0   1  11   0    varsat  
  1.34479E+02  2.28532E-01  0.00000E+00   0   1   7   0    varsat  
  1.35000E+02  5.21468E-01  0.00000E+00   0   1  13   0    varsat  
  1.35974E+02  9.74490E-01  0.00000E+00   0   1   7   0    varsat  
  1.36000E+02  2.55105E-02  0.00000E+00   0   1   4   0    varsat  
  1.36128E+02  1.27552E-01  0.00000E+00   0   1   5   0    varsat  
  1.36765E+02  6.37762E-01  0.00000E+00   0   1   6   0    varsat  
  1.37000E+02  2.34685E-01  0.00000E+00   0   1   6   0    varsat  
  1.38000E+02  1.00000E+00  0.00000E+00   0   1   7   0    varsat  
  1.38125E+02  1.25000E-01  0.00000E+00   0   1  10   0    varsat  
  1.38211E+02  8.62192E-02  0.00000E+00   0   1   7   0    varsat  
  1.38397E+02  1.85744E-01  0.00000E+00   0   1   9   0    varsat  
  1.38670E+02  2.72605E-01  0.00000E+00   0   1   9   0    varsat  
  1.39000E+02  3.30432E-01  0.00000E+00   0   1   8   0    varsat  
  1.39477E+02  4.76712E-01  0.00000E+00   0   1   6   0    varsat  
  1.40000E+02  5.23288E-01  0.00000E+00   0   1   6   0    varsat  
  1.41000E+02  1.00000E+00  0.00000E+00   0   1   5   0    varsat  
  1.42000E+02  1.00000E+00  0.00000E+00   0   1   6   0    varsat  
  1.43000E+02  1.00000E+00  0.00000E+00   0   1   6   0    varsat  
  1.44000E+02  1.00000E+00  0.00000E+00   0   1   7   0    varsat  
  1.45000E+02  1.00000E+00  0.00000E+00   0   1   7   0    varsat  
  1.46000E+02  1.00000E+00  0.00000E+00   0   1   7   0    varsat  
  1.46500E+02  5.00000E-01  0.00000E+00   0   1  11   0    varsat  
  1.47000E+02  5.00000E-01  0.00000E+00   0   1   6   0    varsat  
  1.48000E+02  1.00000E+00  0.00000E+00   0   1   7   0    varsat  
  1.49000E+02  1.00000E+00  0.00000E+00   0   1   5   0    varsat  
  1.50000E+02  1.00000E+00  0.00000E+00   0   1   5   0    varsat  
