title = "dataset transp-updrld"
variables = "x", "y", "z", "h_w", "p_w", "s_w", "theta_a", "s_a", "theta_g", "q_root"
zone t = "Flow variables, solution time =  3.000E+01 days        " i =   30, j =   30, k =    1,  f=point
  0.000000E+000  0.000000E+000  0.000000E+000 -0.100000E+003 -0.100000E+003  0.214462E+000  0.115809E+000  0.785538E+000  0.424191E+000  0.000000E+000
  0.344828E-001  0.000000E+000  0.000000E+000 -0.100000E+003 -0.100000E+003  0.214462E+000  0.115809E+000  0.785538E+000  0.424191E+000  0.000000E+000
  0.689655E-001  0.000000E+000  0.000000E+000 -0.100000E+003 -0.100000E+003  0.214462E+000  0.115809E+000  0.785538E+000  0.424191E+000  0.000000E+000
  0.103448E+000  0.000000E+000  0.000000E+000 -0.100000E+003 -0.100000E+003  0.214462E+000  0.115809E+000  0.785538E+000  0.424191E+000  0.000000E+000
  0.137931E+000  0.000000E+000  0.000000E+000 -0.100000E+003 -0.100000E+003  0.214462E+000  0.115809E+000  0.785538E+000  0.424191E+000  0.000000E+000
  0.172414E+000  0.000000E+000  0.000000E+000 -0.100000E+003 -0.100000E+003  0.214462E+000  0.115809E+000  0.785538E+000  0.424191E+000  0.000000E+000
  0.206897E+000  0.000000E+000  0.000000E+000 -0.100000E+003 -0.100000E+003  0.214462E+000  0.115809E+000  0.785538E+000  0.424191E+000  0.000000E+000
  0.241379E+000  0.000000E+000  0.000000E+000 -0.100000E+003 -0.100000E+003  0.214462E+000  0.115809E+000  0.785538E+000  0.424191E+000  0.000000E+000
  0.275862E+000  0.000000E+000  0.000000E+000 -0.100000E+003 -0.100000E+003  0.214462E+000  0.115809E+000  0.785538E+000  0.424191E+000  0.000000E+000
  0.310345E+000  0.000000E+000  0.000000E+000 -0.100000E+003 -0.100000E+003  0.214462E+000  0.115809E+000  0.785538E+000  0.424191E+000  0.000000E+000
  0.344828E+000  0.000000E+000  0.000000E+000 -0.100000E+003 -0.100000E+003  0.214462E+000  0.115809E+000  0.785538E+000  0.424191E+000  0.000000E+000
  0.379310E+000  0.000000E+000  0.000000E+000 -0.100000E+003 -0.100000E+003  0.214462E+000  0.115809E+000  0.785538E+000  0.424191E+000  0.000000E+000
  0.413793E+000  0.000000E+000  0.000000E+000 -0.100000E+003 -0.100000E+003  0.214462E+000  0.115809E+000  0.785538E+000  0.424191E+000  0.000000E+000
  0.448276E+000  0.000000E+000  0.000000E+000 -0.100000E+003 -0.100000E+003  0.214462E+000  0.115809E+000  0.785538E+000  0.424191E+000  0.000000E+000
  0.482759E+000  0.000000E+000  0.000000E+000 -0.100000E+003 -0.100000E+003  0.214462E+000  0.115809E+000  0.785538E+000  0.424191E+000  0.000000E+000
  0.517241E+000  0.000000E+000  0.000000E+000 -0.100000E+003 -0.100000E+003  0.214462E+000  0.115809E+000  0.785538E+000  0.424191E+000  0.000000E+000
  0.551724E+000  0.000000E+000  0.000000E+000 -0.100000E+003 -0.100000E+003  0.214462E+000  0.115809E+000  0.785538E+000  0.424191E+000  0.000000E+000
  0.586207E+000  0.000000E+000  0.000000E+000 -0.100000E+003 -0.100000E+003  0.214462E+000  0.115809E+000  0.785538E+000  0.424191E+000  0.000000E+000
  0.620690E+000  0.000000E+000  0.000000E+000 -0.100000E+003 -0.100000E+003  0.214462E+000  0.115809E+000  0.785538E+000  0.424191E+000  0.000000E+000
  0.655172E+000  0.000000E+000  0.000000E+000 -0.100000E+003 -0.100000E+003  0.214462E+000  0.115809E+000  0.785538E+000  0.424191E+000  0.000000E+000
  0.689655E+000  0.000000E+000  0.000000E+000 -0.100000E+003 -0.100000E+003  0.214462E+000  0.115809E+000  0.785538E+000  0.424191E+000  0.000000E+000
  0.724138E+000  0.000000E+000  0.000000E+000 -0.100000E+003 -0.100000E+003  0.214462E+000  0.115809E+000  0.785538E+000  0.424191E+000  0.000000E+000
  0.758621E+000  0.000000E+000  0.000000E+000 -0.100000E+003 -0.100000E+003  0.214462E+000  0.115809E+000  0.785538E+000  0.424191E+000  0.000000E+000
  0.793103E+000  0.000000E+000  0.000000E+000 -0.100000E+003 -0.100000E+003  0.214462E+000  0.115809E+000  0.785538E+000  0.424191E+000  0.000000E+000
  0.827586E+000  0.000000E+000  0.000000E+000 -0.100000E+003 -0.100000E+003  0.214462E+000  0.115809E+000  0.785538E+000  0.424191E+000  0.000000E+000
  0.862069E+000  0.000000E+000  0.000000E+000 -0.100000E+003 -0.100000E+003  0.214462E+000  0.115809E+000  0.785538E+000  0.424191E+000  0.000000E+000
  0.896552E+000  0.000000E+000  0.000000E+000 -0.100000E+003 -0.100000E+003  0.214462E+000  0.115809E+000  0.785538E+000  0.424191E+000  0.000000E+000
  0.931034E+000  0.000000E+000  0.000000E+000 -0.100000E+003 -0.100000E+003  0.214462E+000  0.115809E+000  0.785538E+000  0.424191E+000  0.000000E+000
  0.965517E+000  0.000000E+000  0.000000E+000 -0.100000E+003 -0.100000E+003  0.214462E+000  0.115809E+000  0.785538E+000  0.424191E+000  0.000000E+000
  0.100000E+001  0.000000E+000  0.000000E+000 -0.100000E+003 -0.100000E+003  0.214462E+000  0.115809E+000  0.785538E+000  0.424191E+000  0.000000E+000
  0.000000E+000  0.000000E+000  0.344828E-001 -0.297659E+002 -0.298004E+002  0.276787E+000  0.149465E+000  0.723213E+000  0.390535E+000  0.000000E+000
  0.344828E-001  0.000000E+000  0.344828E-001 -0.297704E+002 -0.298049E+002  0.276776E+000  0.149459E+000  0.723224E+000  0.390541E+000  0.000000E+000
  0.689655E-001  0.000000E+000  0.344828E-001 -0.297838E+002 -0.298183E+002  0.276745E+000  0.149442E+000  0.723255E+000  0.390558E+000  0.000000E+000
  0.103448E+000  0.000000E+000  0.344828E-001 -0.298053E+002 -0.298398E+002  0.276694E+000  0.149415E+000  0.723306E+000  0.390585E+000  0.000000E+000
  0.137931E+000  0.000000E+000  0.344828E-001 -0.298341E+002 -0.298686E+002  0.276626E+000  0.149378E+000  0.723374E+000  0.390622E+000  0.000000E+000
  0.172414E+000  0.000000E+000  0.344828E-001 -0.298686E+002 -0.299031E+002  0.276544E+000  0.149334E+000  0.723456E+000  0.390666E+000  0.000000E+000
  0.206897E+000  0.000000E+000  0.344828E-001 -0.299071E+002 -0.299416E+002  0.276453E+000  0.149285E+000  0.723547E+000  0.390715E+000  0.000000E+000
  0.241379E+000  0.000000E+000  0.344828E-001 -0.299477E+002 -0.299822E+002  0.276358E+000  0.149233E+000  0.723642E+000  0.390767E+000  0.000000E+000
  0.275862E+000  0.000000E+000  0.344828E-001 -0.299880E+002 -0.300225E+002  0.276264E+000  0.149182E+000  0.723736E+000  0.390818E+000  0.000000E+000
  0.310345E+000  0.000000E+000  0.344828E-001 -0.300257E+002 -0.300602E+002  0.276175E+000  0.149135E+000  0.723825E+000  0.390865E+000  0.000000E+000
  0.344828E+000  0.000000E+000  0.344828E-001 -0.300585E+002 -0.300930E+002  0.276099E+000  0.149093E+000  0.723901E+000  0.390907E+000  0.000000E+000
  0.379310E+000  0.000000E+000  0.344828E-001 -0.300841E+002 -0.301185E+002  0.276039E+000  0.149061E+000  0.723961E+000  0.390939E+000  0.000000E+000
  0.413793E+000  0.000000E+000  0.344828E-001 -0.301006E+002 -0.301351E+002  0.276000E+000  0.149040E+000  0.724000E+000  0.390960E+000  0.000000E+000
  0.448276E+000  0.000000E+000  0.344828E-001 -0.301066E+002 -0.301410E+002  0.275987E+000  0.149033E+000  0.724013E+000  0.390967E+000  0.000000E+000
  0.482759E+000  0.000000E+000  0.344828E-001 -0.301011E+002 -0.301356E+002  0.275999E+000  0.149040E+000  0.724001E+000  0.390960E+000  0.000000E+000
  0.517241E+000  0.000000E+000  0.344828E-001 -0.300839E+002 -0.301184E+002  0.276039E+000  0.149061E+000  0.723961E+000  0.390939E+000  0.000000E+000
  0.551724E+000  0.000000E+000  0.344828E-001 -0.300555E+002 -0.300900E+002  0.276106E+000  0.149097E+000  0.723894E+000  0.390903E+000  0.000000E+000
  0.586207E+000  0.000000E+000  0.344828E-001 -0.300169E+002 -0.300514E+002  0.276196E+000  0.149146E+000  0.723804E+000  0.390854E+000  0.000000E+000
  0.620690E+000  0.000000E+000  0.344828E-001 -0.299698E+002 -0.300043E+002  0.276306E+000  0.149205E+000  0.723694E+000  0.390795E+000  0.000000E+000
  0.655172E+000  0.000000E+000  0.344828E-001 -0.299161E+002 -0.299506E+002  0.276432E+000  0.149273E+000  0.723568E+000  0.390727E+000  0.000000E+000
  0.689655E+000  0.000000E+000  0.344828E-001 -0.298582E+002 -0.298927E+002  0.276569E+000  0.149347E+000  0.723431E+000  0.390653E+000  0.000000E+000
  0.724138E+000  0.000000E+000  0.344828E-001 -0.297984E+002 -0.298329E+002  0.276710E+000  0.149423E+000  0.723290E+000  0.390577E+000  0.000000E+000
  0.758621E+000  0.000000E+000  0.344828E-001 -0.297392E+002 -0.297737E+002  0.276850E+000  0.149499E+000  0.723150E+000  0.390501E+000  0.000000E+000
  0.793103E+000  0.000000E+000  0.344828E-001 -0.296829E+002 -0.297173E+002  0.276984E+000  0.149572E+000  0.723016E+000  0.390428E+000  0.000000E+000
  0.827586E+000  0.000000E+000  0.344828E-001 -0.296315E+002 -0.296659E+002  0.277107E+000  0.149638E+000  0.722893E+000  0.390362E+000  0.000000E+000
  0.862069E+000  0.000000E+000  0.344828E-001 -0.295868E+002 -0.296213E+002  0.277214E+000  0.149695E+000  0.722786E+000  0.390305E+000  0.000000E+000
  0.896552E+000  0.000000E+000  0.344828E-001 -0.295505E+002 -0.295850E+002  0.277301E+000  0.149742E+000  0.722699E+000  0.390258E+000  0.000000E+000
  0.931034E+000  0.000000E+000  0.344828E-001 -0.295237E+002 -0.295582E+002  0.277365E+000  0.149777E+000  0.722635E+000  0.390223E+000  0.000000E+000
  0.965517E+000  0.000000E+000  0.344828E-001 -0.295072E+002 -0.295417E+002  0.277404E+000  0.149798E+000  0.722596E+000  0.390202E+000  0.000000E+000
  0.100000E+001  0.000000E+000  0.344828E-001 -0.295017E+002 -0.295362E+002  0.277418E+000  0.149806E+000  0.722582E+000  0.390194E+000  0.000000E+000
  0.000000E+000  0.000000E+000  0.689655E-001 -0.173109E+002 -0.173799E+002  0.321076E+000  0.173381E+000  0.678924E+000  0.366619E+000  0.000000E+000
  0.344828E-001  0.000000E+000  0.689655E-001 -0.173141E+002 -0.173831E+002  0.321059E+000  0.173372E+000  0.678941E+000  0.366628E+000  0.000000E+000
  0.689655E-001  0.000000E+000  0.689655E-001 -0.173236E+002 -0.173925E+002  0.321008E+000  0.173344E+000  0.678992E+000  0.366656E+000  0.000000E+000
  0.103448E+000  0.000000E+000  0.689655E-001 -0.173388E+002 -0.174077E+002  0.320925E+000  0.173299E+000  0.679075E+000  0.366701E+000  0.000000E+000
  0.137931E+000  0.000000E+000  0.689655E-001 -0.173591E+002 -0.174280E+002  0.320815E+000  0.173240E+000  0.679185E+000  0.366760E+000  0.000000E+000
  0.172414E+000  0.000000E+000  0.689655E-001 -0.173834E+002 -0.174524E+002  0.320683E+000  0.173169E+000  0.679317E+000  0.366831E+000  0.000000E+000
  0.206897E+000  0.000000E+000  0.689655E-001 -0.174106E+002 -0.174796E+002  0.320536E+000  0.173089E+000  0.679464E+000  0.366911E+000  0.000000E+000
  0.241379E+000  0.000000E+000  0.689655E-001 -0.174392E+002 -0.175081E+002  0.320382E+000  0.173006E+000  0.679618E+000  0.366994E+000  0.000000E+000
  0.275862E+000  0.000000E+000  0.689655E-001 -0.174676E+002 -0.175366E+002  0.320229E+000  0.172923E+000  0.679771E+000  0.367077E+000  0.000000E+000
  0.310345E+000  0.000000E+000  0.689655E-001 -0.174941E+002 -0.175631E+002  0.320086E+000  0.172847E+000  0.679914E+000  0.367153E+000  0.000000E+000
  0.344828E+000  0.000000E+000  0.689655E-001 -0.175172E+002 -0.175861E+002  0.319963E+000  0.172780E+000  0.680037E+000  0.367220E+000  0.000000E+000
  0.379310E+000  0.000000E+000  0.689655E-001 -0.175351E+002 -0.176041E+002  0.319867E+000  0.172728E+000  0.680133E+000  0.367272E+000  0.000000E+000
  0.413793E+000  0.000000E+000  0.689655E-001 -0.175466E+002 -0.176156E+002  0.319805E+000  0.172695E+000  0.680195E+000  0.367305E+000  0.000000E+000
  0.448276E+000  0.000000E+000  0.689655E-001 -0.175507E+002 -0.176196E+002  0.319784E+000  0.172683E+000  0.680216E+000  0.367317E+000  0.000000E+000
  0.482759E+000  0.000000E+000  0.689655E-001 -0.175466E+002 -0.176155E+002  0.319806E+000  0.172695E+000  0.680194E+000  0.367305E+000  0.000000E+000
  0.517241E+000  0.000000E+000  0.689655E-001 -0.175342E+002 -0.176032E+002  0.319872E+000  0.172731E+000  0.680128E+000  0.367269E+000  0.000000E+000
  0.551724E+000  0.000000E+000  0.689655E-001 -0.175139E+002 -0.175829E+002  0.319980E+000  0.172789E+000  0.680020E+000  0.367211E+000  0.000000E+000
  0.586207E+000  0.000000E+000  0.689655E-001 -0.174864E+002 -0.175554E+002  0.320128E+000  0.172869E+000  0.679872E+000  0.367131E+000  0.000000E+000
  0.620690E+000  0.000000E+000  0.689655E-001 -0.174529E+002 -0.175218E+002  0.320308E+000  0.172966E+000  0.679692E+000  0.367034E+000  0.000000E+000
  0.655172E+000  0.000000E+000  0.689655E-001 -0.174147E+002 -0.174837E+002  0.320514E+000  0.173077E+000  0.679486E+000  0.366923E+000  0.000000E+000
  0.689655E+000  0.000000E+000  0.689655E-001 -0.173735E+002 -0.174425E+002  0.320736E+000  0.173198E+000  0.679264E+000  0.366802E+000  0.000000E+000
  0.724138E+000  0.000000E+000  0.689655E-001 -0.173311E+002 -0.174001E+002  0.320966E+000  0.173322E+000  0.679034E+000  0.366678E+000  0.000000E+000
  0.758621E+000  0.000000E+000  0.689655E-001 -0.172891E+002 -0.173581E+002  0.321195E+000  0.173446E+000  0.678805E+000  0.366554E+000  0.000000E+000
  0.793103E+000  0.000000E+000  0.689655E-001 -0.172491E+002 -0.173181E+002  0.321414E+000  0.173564E+000  0.678586E+000  0.366436E+000  0.000000E+000
  0.827586E+000  0.000000E+000  0.689655E-001 -0.172127E+002 -0.172817E+002  0.321614E+000  0.173672E+000  0.678386E+000  0.366328E+000  0.000000E+000
  0.862069E+000  0.000000E+000  0.689655E-001 -0.171811E+002 -0.172500E+002  0.321788E+000  0.173766E+000  0.678212E+000  0.366234E+000  0.000000E+000
  0.896552E+000  0.000000E+000  0.689655E-001 -0.171553E+002 -0.172243E+002  0.321930E+000  0.173842E+000  0.678070E+000  0.366158E+000  0.000000E+000
  0.931034E+000  0.000000E+000  0.689655E-001 -0.171363E+002 -0.172053E+002  0.322035E+000  0.173899E+000  0.677965E+000  0.366101E+000  0.000000E+000
  0.965517E+000  0.000000E+000  0.689655E-001 -0.171246E+002 -0.171936E+002  0.322100E+000  0.173934E+000  0.677900E+000  0.366066E+000  0.000000E+000
  0.100000E+001  0.000000E+000  0.689655E-001 -0.171207E+002 -0.171897E+002  0.322122E+000  0.173946E+000  0.677878E+000  0.366054E+000  0.000000E+000
  0.000000E+000  0.000000E+000  0.103448E+000 -0.124731E+002 -0.125765E+002  0.354499E+000  0.191429E+000  0.645501E+000  0.348571E+000  0.000000E+000
  0.344828E-001  0.000000E+000  0.103448E+000 -0.124754E+002 -0.125788E+002  0.354478E+000  0.191418E+000  0.645522E+000  0.348582E+000  0.000000E+000
  0.689655E-001  0.000000E+000  0.103448E+000 -0.124822E+002 -0.125856E+002  0.354418E+000  0.191386E+000  0.645582E+000  0.348614E+000  0.000000E+000
  0.103448E+000  0.000000E+000  0.103448E+000 -0.124931E+002 -0.125965E+002  0.354320E+000  0.191333E+000  0.645680E+000  0.348667E+000  0.000000E+000
  0.137931E+000  0.000000E+000  0.103448E+000 -0.125076E+002 -0.126111E+002  0.354191E+000  0.191263E+000  0.645809E+000  0.348737E+000  0.000000E+000
  0.172414E+000  0.000000E+000  0.103448E+000 -0.125251E+002 -0.126286E+002  0.354035E+000  0.191179E+000  0.645965E+000  0.348821E+000  0.000000E+000
  0.206897E+000  0.000000E+000  0.103448E+000 -0.125446E+002 -0.126481E+002  0.353862E+000  0.191086E+000  0.646138E+000  0.348914E+000  0.000000E+000
  0.241379E+000  0.000000E+000  0.103448E+000 -0.125651E+002 -0.126685E+002  0.353681E+000  0.190988E+000  0.646319E+000  0.349012E+000  0.000000E+000
  0.275862E+000  0.000000E+000  0.103448E+000 -0.125854E+002 -0.126889E+002  0.353502E+000  0.190891E+000  0.646498E+000  0.349109E+000  0.000000E+000
  0.310345E+000  0.000000E+000  0.103448E+000 -0.126044E+002 -0.127079E+002  0.353335E+000  0.190801E+000  0.646665E+000  0.349199E+000  0.000000E+000
  0.344828E+000  0.000000E+000  0.103448E+000 -0.126208E+002 -0.127243E+002  0.353190E+000  0.190723E+000  0.646810E+000  0.349277E+000  0.000000E+000
  0.379310E+000  0.000000E+000  0.103448E+000 -0.126336E+002 -0.127370E+002  0.353078E+000  0.190662E+000  0.646922E+000  0.349338E+000  0.000000E+000
  0.413793E+000  0.000000E+000  0.103448E+000 -0.126417E+002 -0.127452E+002  0.353007E+000  0.190624E+000  0.646993E+000  0.349376E+000  0.000000E+000
  0.448276E+000  0.000000E+000  0.103448E+000 -0.126444E+002 -0.127479E+002  0.352984E+000  0.190611E+000  0.647016E+000  0.349389E+000  0.000000E+000
  0.482759E+000  0.000000E+000  0.103448E+000 -0.126413E+002 -0.127448E+002  0.353011E+000  0.190626E+000  0.646989E+000  0.349374E+000  0.000000E+000
  0.517241E+000  0.000000E+000  0.103448E+000 -0.126322E+002 -0.127357E+002  0.353090E+000  0.190669E+000  0.646910E+000  0.349331E+000  0.000000E+000
  0.551724E+000  0.000000E+000  0.103448E+000 -0.126174E+002 -0.127209E+002  0.353220E+000  0.190739E+000  0.646780E+000  0.349261E+000  0.000000E+000
  0.586207E+000  0.000000E+000  0.103448E+000 -0.125975E+002 -0.127009E+002  0.353396E+000  0.190834E+000  0.646604E+000  0.349166E+000  0.000000E+000
  0.620690E+000  0.000000E+000  0.103448E+000 -0.125732E+002 -0.126766E+002  0.353610E+000  0.190949E+000  0.646390E+000  0.349051E+000  0.000000E+000
  0.655172E+000  0.000000E+000  0.103448E+000 -0.125455E+002 -0.126490E+002  0.353854E+000  0.191081E+000  0.646146E+000  0.348919E+000  0.000000E+000
  0.689655E+000  0.000000E+000  0.103448E+000 -0.125157E+002 -0.126192E+002  0.354119E+000  0.191224E+000  0.645881E+000  0.348776E+000  0.000000E+000
  0.724138E+000  0.000000E+000  0.103448E+000 -0.124850E+002 -0.125885E+002  0.354392E+000  0.191372E+000  0.645608E+000  0.348628E+000  0.000000E+000
  0.758621E+000  0.000000E+000  0.103448E+000 -0.124546E+002 -0.125581E+002  0.354664E+000  0.191518E+000  0.645336E+000  0.348482E+000  0.000000E+000
  0.793103E+000  0.000000E+000  0.103448E+000 -0.124257E+002 -0.125291E+002  0.354923E+000  0.191659E+000  0.645077E+000  0.348341E+000  0.000000E+000
  0.827586E+000  0.000000E+000  0.103448E+000 -0.123993E+002 -0.125028E+002  0.355161E+000  0.191787E+000  0.644839E+000  0.348213E+000  0.000000E+000
  0.862069E+000  0.000000E+000  0.103448E+000 -0.123764E+002 -0.124799E+002  0.355367E+000  0.191898E+000  0.644633E+000  0.348102E+000  0.000000E+000
  0.896552E+000  0.000000E+000  0.103448E+000 -0.123578E+002 -0.124612E+002  0.355536E+000  0.191989E+000  0.644464E+000  0.348011E+000  0.000000E+000
  0.931034E+000  0.000000E+000  0.103448E+000 -0.123440E+002 -0.124475E+002  0.355661E+000  0.192057E+000  0.644339E+000  0.347943E+000  0.000000E+000
  0.965517E+000  0.000000E+000  0.103448E+000 -0.123356E+002 -0.124390E+002  0.355738E+000  0.192098E+000  0.644262E+000  0.347902E+000  0.000000E+000
  0.100000E+001  0.000000E+000  0.103448E+000 -0.123327E+002 -0.124362E+002  0.355763E+000  0.192112E+000  0.644237E+000  0.347888E+000  0.000000E+000
  0.000000E+000  0.000000E+000  0.137931E+000 -0.985226E+001 -0.999019E+001  0.381961E+000  0.206259E+000  0.618039E+000  0.333741E+000  0.000000E+000
  0.344828E-001  0.000000E+000  0.137931E+000 -0.985397E+001 -0.999190E+001  0.381940E+000  0.206247E+000  0.618060E+000  0.333753E+000  0.000000E+000
  0.689655E-001  0.000000E+000  0.137931E+000 -0.985900E+001 -0.999693E+001  0.381876E+000  0.206213E+000  0.618124E+000  0.333787E+000  0.000000E+000
  0.103448E+000  0.000000E+000  0.137931E+000 -0.986712E+001 -0.100050E+002  0.381773E+000  0.206158E+000  0.618227E+000  0.333842E+000  0.000000E+000
  0.137931E+000  0.000000E+000  0.137931E+000 -0.987793E+001 -0.100159E+002  0.381637E+000  0.206084E+000  0.618363E+000  0.333916E+000  0.000000E+000
  0.172414E+000  0.000000E+000  0.137931E+000 -0.989090E+001 -0.100288E+002  0.381474E+000  0.205996E+000  0.618526E+000  0.334004E+000  0.000000E+000
  0.206897E+000  0.000000E+000  0.137931E+000 -0.990537E+001 -0.100433E+002  0.381292E+000  0.205898E+000  0.618708E+000  0.334102E+000  0.000000E+000
  0.241379E+000  0.000000E+000  0.137931E+000 -0.992055E+001 -0.100585E+002  0.381102E+000  0.205795E+000  0.618898E+000  0.334205E+000  0.000000E+000
  0.275862E+000  0.000000E+000  0.137931E+000 -0.993561E+001 -0.100735E+002  0.380913E+000  0.205693E+000  0.619087E+000  0.334307E+000  0.000000E+000
  0.310345E+000  0.000000E+000  0.137931E+000 -0.994964E+001 -0.100876E+002  0.380738E+000  0.205599E+000  0.619262E+000  0.334401E+000  0.000000E+000
  0.344828E+000  0.000000E+000  0.137931E+000 -0.996175E+001 -0.100997E+002  0.380587E+000  0.205517E+000  0.619413E+000  0.334483E+000  0.000000E+000
  0.379310E+000  0.000000E+000  0.137931E+000 -0.997112E+001 -0.101091E+002  0.380471E+000  0.205454E+000  0.619529E+000  0.334546E+000  0.000000E+000
  0.413793E+000  0.000000E+000  0.137931E+000 -0.997703E+001 -0.101150E+002  0.380397E+000  0.205414E+000  0.619603E+000  0.334586E+000  0.000000E+000
  0.448276E+000  0.000000E+000  0.137931E+000 -0.997891E+001 -0.101168E+002  0.380374E+000  0.205402E+000  0.619626E+000  0.334598E+000  0.000000E+000
  0.482759E+000  0.000000E+000  0.137931E+000 -0.997645E+001 -0.101144E+002  0.380404E+000  0.205418E+000  0.619596E+000  0.334582E+000  0.000000E+000
  0.517241E+000  0.000000E+000  0.137931E+000 -0.996956E+001 -0.101075E+002  0.380490E+000  0.205465E+000  0.619510E+000  0.334535E+000  0.000000E+000
  0.551724E+000  0.000000E+000  0.137931E+000 -0.995841E+001 -0.100963E+002  0.380629E+000  0.205540E+000  0.619371E+000  0.334460E+000  0.000000E+000
  0.586207E+000  0.000000E+000  0.137931E+000 -0.994340E+001 -0.100813E+002  0.380816E+000  0.205641E+000  0.619184E+000  0.334359E+000  0.000000E+000
  0.620690E+000  0.000000E+000  0.137931E+000 -0.992516E+001 -0.100631E+002  0.381044E+000  0.205764E+000  0.618956E+000  0.334236E+000  0.000000E+000
  0.655172E+000  0.000000E+000  0.137931E+000 -0.990443E+001 -0.100424E+002  0.381304E+000  0.205904E+000  0.618696E+000  0.334096E+000  0.000000E+000
  0.689655E+000  0.000000E+000  0.137931E+000 -0.988211E+001 -0.100200E+002  0.381584E+000  0.206056E+000  0.618416E+000  0.333944E+000  0.000000E+000
  0.724138E+000  0.000000E+000  0.137931E+000 -0.985910E+001 -0.999703E+001  0.381875E+000  0.206212E+000  0.618125E+000  0.333788E+000  0.000000E+000
  0.758621E+000  0.000000E+000  0.137931E+000 -0.983632E+001 -0.997425E+001  0.382163E+000  0.206368E+000  0.617837E+000  0.333632E+000  0.000000E+000
  0.793103E+000  0.000000E+000  0.137931E+000 -0.981465E+001 -0.995258E+001  0.382439E+000  0.206517E+000  0.617561E+000  0.333483E+000  0.000000E+000
  0.827586E+000  0.000000E+000  0.137931E+000 -0.979487E+001 -0.993281E+001  0.382691E+000  0.206653E+000  0.617309E+000  0.333347E+000  0.000000E+000
  0.862069E+000  0.000000E+000  0.137931E+000 -0.977771E+001 -0.991564E+001  0.382910E+000  0.206771E+000  0.617090E+000  0.333229E+000  0.000000E+000
  0.896552E+000  0.000000E+000  0.137931E+000 -0.976373E+001 -0.990167E+001  0.383089E+000  0.206868E+000  0.616911E+000  0.333132E+000  0.000000E+000
  0.931034E+000  0.000000E+000  0.137931E+000 -0.975342E+001 -0.989135E+001  0.383221E+000  0.206940E+000  0.616779E+000  0.333060E+000  0.000000E+000
  0.965517E+000  0.000000E+000  0.137931E+000 -0.974709E+001 -0.988502E+001  0.383303E+000  0.206983E+000  0.616697E+000  0.333017E+000  0.000000E+000
  0.100000E+001  0.000000E+000  0.137931E+000 -0.974495E+001 -0.988288E+001  0.383330E+000  0.206998E+000  0.616670E+000  0.333002E+000  0.000000E+000
  0.000000E+000  0.000000E+000  0.172414E+000 -0.817110E+001 -0.834352E+001  0.405782E+000  0.219122E+000  0.594218E+000  0.320878E+000  0.000000E+000
  0.344828E-001  0.000000E+000  0.172414E+000 -0.817240E+001 -0.834482E+001  0.405760E+000  0.219110E+000  0.594240E+000  0.320890E+000  0.000000E+000
  0.689655E-001  0.000000E+000  0.172414E+000 -0.817624E+001 -0.834865E+001  0.405697E+000  0.219076E+000  0.594303E+000  0.320924E+000  0.000000E+000
  0.103448E+000  0.000000E+000  0.172414E+000 -0.818243E+001 -0.835485E+001  0.405594E+000  0.219021E+000  0.594406E+000  0.320979E+000  0.000000E+000
  0.137931E+000  0.000000E+000  0.172414E+000 -0.819067E+001 -0.836309E+001  0.405458E+000  0.218947E+000  0.594542E+000  0.321053E+000  0.000000E+000
  0.172414E+000  0.000000E+000  0.172414E+000 -0.820056E+001 -0.837297E+001  0.405295E+000  0.218859E+000  0.594705E+000  0.321141E+000  0.000000E+000
  0.206897E+000  0.000000E+000  0.172414E+000 -0.821157E+001 -0.838399E+001  0.405114E+000  0.218761E+000  0.594886E+000  0.321239E+000  0.000000E+000
  0.241379E+000  0.000000E+000  0.172414E+000 -0.822313E+001 -0.839554E+001  0.404924E+000  0.218659E+000  0.595076E+000  0.321341E+000  0.000000E+000
  0.275862E+000  0.000000E+000  0.172414E+000 -0.823457E+001 -0.840699E+001  0.404736E+000  0.218558E+000  0.595264E+000  0.321442E+000  0.000000E+000
  0.310345E+000  0.000000E+000  0.172414E+000 -0.824522E+001 -0.841764E+001  0.404562E+000  0.218464E+000  0.595438E+000  0.321536E+000  0.000000E+000
  0.344828E+000  0.000000E+000  0.172414E+000 -0.825440E+001 -0.842681E+001  0.404412E+000  0.218383E+000  0.595588E+000  0.321617E+000  0.000000E+000
  0.379310E+000  0.000000E+000  0.172414E+000 -0.826147E+001 -0.843388E+001  0.404297E+000  0.218320E+000  0.595703E+000  0.321680E+000  0.000000E+000
  0.413793E+000  0.000000E+000  0.172414E+000 -0.826588E+001 -0.843829E+001  0.404225E+000  0.218281E+000  0.595775E+000  0.321719E+000  0.000000E+000
  0.448276E+000  0.000000E+000  0.172414E+000 -0.826722E+001 -0.843964E+001  0.404203E+000  0.218270E+000  0.595797E+000  0.321730E+000  0.000000E+000
  0.482759E+000  0.000000E+000  0.172414E+000 -0.826524E+001 -0.843765E+001  0.404235E+000  0.218287E+000  0.595765E+000  0.321713E+000  0.000000E+000
  0.517241E+000  0.000000E+000  0.172414E+000 -0.825987E+001 -0.843228E+001  0.404323E+000  0.218334E+000  0.595677E+000  0.321666E+000  0.000000E+000
  0.551724E+000  0.000000E+000  0.172414E+000 -0.825124E+001 -0.842365E+001  0.404464E+000  0.218410E+000  0.595536E+000  0.321590E+000  0.000000E+000
  0.586207E+000  0.000000E+000  0.172414E+000 -0.823967E+001 -0.841208E+001  0.404653E+000  0.218513E+000  0.595347E+000  0.321487E+000  0.000000E+000
  0.620690E+000  0.000000E+000  0.172414E+000 -0.822562E+001 -0.839803E+001  0.404883E+000  0.218637E+000  0.595117E+000  0.321363E+000  0.000000E+000
  0.655172E+000  0.000000E+000  0.172414E+000 -0.820967E+001 -0.838209E+001  0.405145E+000  0.218778E+000  0.594855E+000  0.321222E+000  0.000000E+000
  0.689655E+000  0.000000E+000  0.172414E+000 -0.819250E+001 -0.836491E+001  0.405428E+000  0.218931E+000  0.594572E+000  0.321069E+000  0.000000E+000
  0.724138E+000  0.000000E+000  0.172414E+000 -0.817480E+001 -0.834722E+001  0.405720E+000  0.219089E+000  0.594280E+000  0.320911E+000  0.000000E+000
  0.758621E+000  0.000000E+000  0.172414E+000 -0.815728E+001 -0.832970E+001  0.406011E+000  0.219246E+000  0.593989E+000  0.320754E+000  0.000000E+000
  0.793103E+000  0.000000E+000  0.172414E+000 -0.814061E+001 -0.831303E+001  0.406288E+000  0.219396E+000  0.593712E+000  0.320604E+000  0.000000E+000
  0.827586E+000  0.000000E+000  0.172414E+000 -0.812540E+001 -0.829782E+001  0.406542E+000  0.219532E+000  0.593458E+000  0.320468E+000  0.000000E+000
  0.862069E+000  0.000000E+000  0.172414E+000 -0.811220E+001 -0.828461E+001  0.406762E+000  0.219652E+000  0.593238E+000  0.320348E+000  0.000000E+000
  0.896552E+000  0.000000E+000  0.172414E+000 -0.810144E+001 -0.827386E+001  0.406943E+000  0.219749E+000  0.593057E+000  0.320251E+000  0.000000E+000
  0.931034E+000  0.000000E+000  0.172414E+000 -0.809350E+001 -0.826592E+001  0.407076E+000  0.219821E+000  0.592924E+000  0.320179E+000  0.000000E+000
  0.965517E+000  0.000000E+000  0.172414E+000 -0.808863E+001 -0.826105E+001  0.407158E+000  0.219865E+000  0.592842E+000  0.320135E+000  0.000000E+000
  0.100000E+001  0.000000E+000  0.172414E+000 -0.808699E+001 -0.825940E+001  0.407185E+000  0.219880E+000  0.592815E+000  0.320120E+000  0.000000E+000
  0.000000E+000  0.000000E+000  0.206897E+000 -0.698234E+001 -0.718924E+001  0.427110E+000  0.230639E+000  0.572890E+000  0.309361E+000  0.000000E+000
  0.344828E-001  0.000000E+000  0.206897E+000 -0.698336E+001 -0.719025E+001  0.427089E+000  0.230628E+000  0.572911E+000  0.309372E+000  0.000000E+000
  0.689655E-001  0.000000E+000  0.206897E+000 -0.698635E+001 -0.719324E+001  0.427027E+000  0.230595E+000  0.572973E+000  0.309405E+000  0.000000E+000
  0.103448E+000  0.000000E+000  0.206897E+000 -0.699117E+001 -0.719806E+001  0.426928E+000  0.230541E+000  0.573072E+000  0.309459E+000  0.000000E+000
  0.137931E+000  0.000000E+000  0.206897E+000 -0.699758E+001 -0.720448E+001  0.426796E+000  0.230470E+000  0.573204E+000  0.309530E+000  0.000000E+000
  0.172414E+000  0.000000E+000  0.206897E+000 -0.700527E+001 -0.721217E+001  0.426638E+000  0.230384E+000  0.573362E+000  0.309616E+000  0.000000E+000
  0.206897E+000  0.000000E+000  0.206897E+000 -0.701384E+001 -0.722074E+001  0.426462E+000  0.230290E+000  0.573538E+000  0.309710E+000  0.000000E+000
  0.241379E+000  0.000000E+000  0.206897E+000 -0.702282E+001 -0.722972E+001  0.426278E+000  0.230190E+000  0.573722E+000  0.309810E+000  0.000000E+000
  0.275862E+000  0.000000E+000  0.206897E+000 -0.703171E+001 -0.723861E+001  0.426096E+000  0.230092E+000  0.573904E+000  0.309908E+000  0.000000E+000
  0.310345E+000  0.000000E+000  0.206897E+000 -0.703997E+001 -0.724687E+001  0.425928E+000  0.230001E+000  0.574072E+000  0.309999E+000  0.000000E+000
  0.344828E+000  0.000000E+000  0.206897E+000 -0.704708E+001 -0.725398E+001  0.425783E+000  0.229923E+000  0.574217E+000  0.310077E+000  0.000000E+000
  0.379310E+000  0.000000E+000  0.206897E+000 -0.705253E+001 -0.725943E+001  0.425672E+000  0.229863E+000  0.574328E+000  0.310137E+000  0.000000E+000
  0.413793E+000  0.000000E+000  0.206897E+000 -0.705591E+001 -0.726281E+001  0.425603E+000  0.229826E+000  0.574397E+000  0.310174E+000  0.000000E+000
  0.448276E+000  0.000000E+000  0.206897E+000 -0.705689E+001 -0.726379E+001  0.425583E+000  0.229815E+000  0.574417E+000  0.310185E+000  0.000000E+000
  0.482759E+000  0.000000E+000  0.206897E+000 -0.705527E+001 -0.726217E+001  0.425616E+000  0.229833E+000  0.574384E+000  0.310167E+000  0.000000E+000
  0.517241E+000  0.000000E+000  0.206897E+000 -0.705100E+001 -0.725790E+001  0.425703E+000  0.229880E+000  0.574297E+000  0.310120E+000  0.000000E+000
  0.551724E+000  0.000000E+000  0.206897E+000 -0.704419E+001 -0.725109E+001  0.425842E+000  0.229955E+000  0.574158E+000  0.310045E+000  0.000000E+000