title = "dataset transp-updrld"
variables = "time", "inflow", "outflow", "change in storage", "root water uptake" 
zone t = "mass balance -  variably saturated flow", f=point
  1.0000E-10  8.6400E-03  0.0000E+00  8.5894E-03  0.0000E+00
  6.0000E-10  8.6400E-03  0.0000E+00  8.6399E-03  0.0000E+00
  3.1000E-09  8.6400E-03  0.0000E+00  8.6399E-03  0.0000E+00
  1.5600E-08  8.6400E-03  0.0000E+00  8.6400E-03  0.0000E+00
  7.8100E-08  8.6400E-03  0.0000E+00  8.6400E-03  0.0000E+00
  3.9060E-07  8.6400E-03  0.0000E+00  8.6400E-03  0.0000E+00
  1.9531E-06  8.6400E-03  0.0000E+00  8.6400E-03  0.0000E+00
  9.7656E-06  8.6400E-03  0.0000E+00  8.6400E-03  0.0000E+00
  4.8828E-05  8.6400E-03  0.0000E+00  8.6400E-03  0.0000E+00
  2.4414E-04  8.6400E-03  0.0000E+00  8.6400E-03  0.0000E+00
  1.2207E-03  8.6400E-03  0.0000E+00  8.6400E-03  0.0000E+00
  6.1035E-03  8.6400E-03  0.0000E+00  8.6400E-03  0.0000E+00
  3.0518E-02  8.6400E-03  0.0000E+00  8.6400E-03  0.0000E+00
  1.5259E-01  8.6400E-03  1.0067E-14  8.6400E-03  0.0000E+00
  5.8163E-01  8.6400E-03  7.2230E-09  8.6400E-03  0.0000E+00
  1.0000E+00  8.6400E-03  6.0706E-08  8.6399E-03  0.0000E+00
  2.0000E+00  4.1835E-04  3.7253E-03 -4.6056E-03  0.0000E+00
  2.5975E+00  1.2131E-02  1.9761E-03  1.0154E-02  0.0000E+00
  3.0000E+00  1.2131E-02  1.5605E-03  1.0570E-02  0.0000E+00
  4.0000E+00  2.3622E-05  1.1891E-03 -1.1654E-03  0.0000E+00
  5.0000E+00  0.0000E+00  1.0355E-03 -1.0355E-03  0.0000E+00
  6.0000E+00  0.0000E+00  9.7551E-04 -9.7551E-04  0.0000E+00
  7.0000E+00  0.0000E+00  9.6007E-04 -9.6007E-04  0.0000E+00
  8.0000E+00  0.0000E+00  9.6241E-04 -9.6241E-04  0.0000E+00
  9.0000E+00  0.0000E+00  9.6728E-04 -9.6728E-04  0.0000E+00
  1.0000E+01  0.0000E+00  9.6703E-04 -1.6420E-03  0.0000E+00
  1.0978E+01  0.0000E+00  9.5918E-04 -1.4340E-03  0.0000E+00
  1.1000E+01  0.0000E+00  9.5900E-04 -1.4332E-03  0.0000E+00
  1.1110E+01  0.0000E+00  9.5800E-04 -1.2943E-03  0.0000E+00
  1.1660E+01  0.0000E+00  9.5048E-04 -1.2947E-03  0.0000E+00
  1.2000E+01  0.0000E+00  9.4491E-04 -1.2865E-03  0.0000E+00
  1.3000E+01  0.0000E+00  9.2180E-04 -1.3961E-03  0.0000E+00
  1.4000E+01  0.0000E+00  8.9399E-04 -1.2905E-03  0.0000E+00
  1.5000E+01  0.0000E+00  8.6326E-04 -1.2657E-03  0.0000E+00
  1.6000E+01  0.0000E+00  8.3105E-04 -1.2088E-03  0.0000E+00
  1.7000E+01  0.0000E+00  7.9841E-04 -1.2099E-03  0.0000E+00
  1.8000E+01  0.0000E+00  7.6609E-04 -1.1321E-03  0.0000E+00
  1.9000E+01  0.0000E+00  7.3456E-04 -1.1022E-03  0.0000E+00
  2.0000E+01  0.0000E+00  7.0415E-04 -1.0462E-03  0.0000E+00
  2.1000E+01  1.5250E-03  6.7513E-04  5.2881E-04  0.0000E+00
  2.2000E+01  0.0000E+00  6.4778E-04 -9.6787E-04  0.0000E+00
  2.3000E+01  0.0000E+00  6.2229E-04 -1.0683E-03  0.0000E+00
  2.4000E+01  4.5144E-03  5.9895E-04  3.2931E-03  0.0000E+00
  2.5000E+01  0.0000E+00  5.7815E-04 -1.0660E-03  0.0000E+00
  2.5500E+01  8.3920E-03  5.6850E-04  7.3462E-03  0.0000E+00
  2.5972E+01  8.3920E-03  5.6007E-04  7.3125E-03  0.0000E+00
  2.6000E+01  8.3920E-03  5.5958E-04  7.3110E-03  0.0000E+00
  2.6138E+01  1.8913E-02  5.5720E-04  1.7635E-02  0.0000E+00
  2.6523E+01  1.8913E-02  5.5115E-04  1.7601E-02  0.0000E+00
  2.7000E+01  1.8913E-02  5.4550E-04  1.7584E-02  0.0000E+00
  2.8000E+01  1.8913E-02  6.1126E-04  1.7915E-02  0.0000E+00
  2.9000E+01  8.0361E-03  9.5936E-04  6.7548E-03  0.0000E+00
  3.0000E+01  1.8913E-02  2.1619E-03  1.6543E-02  0.0000E+00
  3.1000E+01  3.4975E-03  3.8969E-03 -6.7101E-04  0.0000E+00
  3.2000E+01  3.3782E-03  4.9574E-03 -2.2554E-03  0.0000E+00
  3.3000E+01  0.0000E+00  5.0907E-03 -6.0798E-03  0.0000E+00
  3.4000E+01  4.3891E-03  4.8364E-03 -1.8054E-03  0.0000E+00
  3.5000E+01  1.0014E-03  4.4638E-03 -4.0901E-03  0.0000E+00
  3.6000E+01  0.0000E+00  4.0463E-03 -4.9729E-03  0.0000E+00
  3.7000E+01  0.0000E+00  3.6214E-03 -5.0514E-03  0.0000E+00
  3.8000E+01  0.0000E+00  3.2168E-03 -4.9671E-03  0.0000E+00
  3.9000E+01  0.0000E+00  2.8504E-03 -4.4011E-03  0.0000E+00
  4.0000E+01  0.0000E+00  2.5292E-03 -3.9294E-03  0.0000E+00
  4.1000E+01  0.0000E+00  2.2525E-03 -3.6003E-03  0.0000E+00
  4.2000E+01  0.0000E+00  2.0160E-03 -3.1738E-03  0.0000E+00
  4.3000E+01  0.0000E+00  1.8141E-03 -2.8532E-03  0.0000E+00
  4.4000E+01  0.0000E+00  1.6416E-03 -2.4814E-03  0.0000E+00
  4.5000E+01  0.0000E+00  1.4936E-03 -2.3213E-03  0.0000E+00
  4.6000E+01  0.0000E+00  1.3662E-03 -2.0507E-03  0.0000E+00
  4.7000E+01  3.2158E-04  1.2560E-03 -1.4553E-03  0.0000E+00
  4.7250E+01  1.1085E-02  1.2301E-03  9.7537E-03  0.0000E+00
  4.7476E+01  1.1085E-02  1.2074E-03  9.7670E-03  0.0000E+00
  4.8000E+01  1.1085E-02  1.1593E-03  9.8072E-03  0.0000E+00
  4.9000E+01  7.7985E-03  1.1063E-03  5.7423E-03  0.0000E+00
  5.0000E+01  1.7919E-03  1.1059E-03 -3.4641E-04  0.0000E+00
  5.1000E+01  6.2389E-03  1.1637E-03  4.4479E-03  0.0000E+00
  5.2000E+01  4.1835E-04  1.2630E-03 -1.9855E-03  0.0000E+00
  5.3000E+01  6.7314E-03  1.3883E-03  4.2992E-03  0.0000E+00
  5.4000E+01  0.0000E+00  1.5129E-03 -2.3001E-03  0.0000E+00
  5.5000E+01  0.0000E+00  1.6020E-03 -2.6518E-03  0.0000E+00
  5.6000E+01  0.0000E+00  1.6360E-03 -2.8676E-03  0.0000E+00
  5.7000E+01  0.0000E+00  1.6172E-03 -2.8939E-03  0.0000E+00
  5.8000E+01  0.0000E+00  1.5600E-03 -3.1028E-03  0.0000E+00
  5.9000E+01  0.0000E+00  1.4801E-03 -2.7861E-03  0.0000E+00
  6.0000E+01  2.3268E-03  1.3917E-03 -3.7764E-04  0.0000E+00
  6.1000E+01  5.7516E-03  1.3101E-03  3.9303E-03  0.0000E+00
  6.1845E+01  0.0000E+00  1.2515E-03 -2.5049E-03  0.0000E+00
  6.2000E+01  0.0000E+00  1.2413E-03 -2.4560E-03  0.0000E+00
  6.2775E+01  0.0000E+00  1.1978E-03 -2.7229E-03  0.0000E+00
  6.3000E+01  0.0000E+00  1.1859E-03 -2.6284E-03  0.0000E+00
  6.3250E+01  2.6888E-02  1.1735E-03  2.5366E-02  0.0000E+00
  6.3380E+01  2.6888E-02  1.1672E-03  2.5352E-02  0.0000E+00
  6.3691E+01  2.6888E-02  1.1534E-03  2.5347E-02  0.0000E+00
  6.4000E+01  2.6888E-02  1.1428E-03  2.5349E-02  0.0000E+00
  6.4756E+01  2.1937E-03  1.1938E-03  5.1921E-06  0.0000E+00
  6.5000E+01  2.1937E-03  1.2223E-03 -8.3780E-06  0.0000E+00
  6.6000E+01  3.7109E-02  2.3596E-03  3.4478E-02  0.0000E+00
  6.6671E+01  1.0014E-03  3.9044E-03 -4.1908E-03  0.0000E+00
  6.7000E+01  1.0014E-03  4.7744E-03 -5.0398E-03  0.0000E+00
  6.8000E+01  0.0000E+00  5.6240E-03 -6.7007E-03  0.0000E+00
  6.9000E+01  5.8743E-03  5.5780E-03 -8.9615E-04  0.0000E+00
  7.0000E+01  0.0000E+00  5.1526E-03 -6.3860E-03  0.0000E+00
  7.1000E+01  0.0000E+00  4.5901E-03 -6.0176E-03  0.0000E+00
  7.2000E+01  0.0000E+00  4.0330E-03 -4.8650E-03  0.0000E+00
  7.3000E+01  0.0000E+00  3.5357E-03 -4.7748E-03  0.0000E+00
  7.4000E+01  5.2609E-03  3.1596E-03  1.1027E-03  0.0000E+00
  7.5000E+01  7.0001E-05  2.8711E-03 -4.0377E-03  0.0000E+00
  7.6000E+01  0.0000E+00  2.6252E-03 -3.7257E-03  0.0000E+00
  7.7000E+01  0.0000E+00  2.4010E-03 -3.3220E-03  0.0000E+00
  7.8000E+01  0.0000E+00  2.1942E-03 -3.0414E-03  0.0000E+00
  7.9000E+01  7.1660E-04  2.0078E-03 -1.9129E-03  0.0000E+00
  8.0000E+01  0.0000E+00  1.8426E-03 -2.5944E-03  0.0000E+00
  8.1000E+01  0.0000E+00  1.6960E-03 -2.7586E-03  0.0000E+00
  8.2000E+01  0.0000E+00  1.5647E-03 -2.6937E-03  0.0000E+00
  8.3000E+01  0.0000E+00  1.4458E-03 -2.7445E-03  0.0000E+00
  8.4000E+01  0.0000E+00  1.3379E-03 -1.8422E-03  0.0000E+00
  8.5000E+01  0.0000E+00  1.2400E-03 -2.3941E-03  0.0000E+00
  8.6000E+01  0.0000E+00  1.1512E-03 -2.3793E-03  0.0000E+00
  8.7000E+01  0.0000E+00  1.0706E-03 -1.7860E-03  0.0000E+00
  8.8000E+01  0.0000E+00  9.9747E-04 -1.7458E-03  0.0000E+00
  8.9000E+01  0.0000E+00  9.3118E-04 -1.6529E-03  0.0000E+00
  9.0000E+01  0.0000E+00  8.7108E-04 -1.5464E-03  0.0000E+00
  9.1000E+01  0.0000E+00  8.1657E-04 -1.5421E-03  0.0000E+00
  9.2000E+01  0.0000E+00  7.6707E-04 -1.5533E-03  0.0000E+00
  9.3000E+01  0.0000E+00  7.2201E-04 -1.4538E-03  0.0000E+00
  9.4000E+01  0.0000E+00  6.8090E-04 -1.3979E-03  0.0000E+00
  9.5000E+01  0.0000E+00  6.4327E-04 -1.3708E-03  0.0000E+00
  9.6000E+01  0.0000E+00  6.0872E-04 -1.3128E-03  0.0000E+00
  9.6031E+01  7.9177E-03  6.0767E-04  6.4298E-03  0.0000E+00
  9.6087E+01  7.9177E-03  6.0578E-04  6.2738E-03  0.0000E+00
  9.6274E+01  7.9177E-03  5.9961E-04  5.9928E-03  0.0000E+00
  9.6801E+01  7.9177E-03  5.8275E-04  5.6162E-03  0.0000E+00
  9.7000E+01  7.9177E-03  5.7654E-04  5.5145E-03  0.0000E+00
  9.7995E+01  5.6298E-03  5.4809E-04  3.3316E-03  0.0000E+00
  9.8000E+01  5.6298E-03  5.4796E-04  3.3310E-03  0.0000E+00
  9.8023E+01  1.6580E-03  5.4732E-04 -1.3437E-04  0.0000E+00
  9.8139E+01  1.6580E-03  5.4412E-04 -1.1066E-04  0.0000E+00
  9.8716E+01  1.6580E-03  5.2922E-04 -5.6476E-05  0.0000E+00
  9.9000E+01  1.6580E-03  5.2225E-04 -3.6017E-05  0.0000E+00
  1.0000E+02  8.7523E-04  5.0254E-04 -3.3206E-04  0.0000E+00
  1.0100E+02  4.0971E-07  4.8830E-04 -1.4016E-03  0.0000E+00
  1.0200E+02  0.0000E+00  4.7888E-04 -1.3392E-03  0.0000E+00
  1.0300E+02  4.0971E-07  4.7296E-04 -1.4315E-03  0.0000E+00
  1.0400E+02  0.0000E+00  4.6895E-04 -1.7653E-03  0.0000E+00
  1.0500E+02  0.0000E+00  4.6538E-04 -1.6970E-03  0.0000E+00
  1.0600E+02  0.0000E+00  4.6113E-04 -1.2986E-03  0.0000E+00
  1.0602E+02  1.2485E-02  4.6106E-04  1.1487E-02  0.0000E+00
  1.0605E+02  1.2485E-02  4.6092E-04  1.1392E-02  0.0000E+00
  1.0614E+02  1.2485E-02  4.6054E-04  1.1228E-02  0.0000E+00
  1.0634E+02  1.2485E-02  4.5961E-04  1.1003E-02  0.0000E+00
  1.0670E+02  1.2485E-02  4.5782E-04  1.0794E-02  0.0000E+00
  1.0700E+02  1.2485E-02  4.5617E-04  1.0687E-02  0.0000E+00
  1.0781E+02  0.0000E+00  4.5102E-04 -2.5381E-03  0.0000E+00
  1.0800E+02  0.0000E+00  4.4983E-04 -2.4196E-03  0.0000E+00
  1.0893E+02  0.0000E+00  4.4417E-04 -2.0754E-03  0.0000E+00
  1.0900E+02  0.0000E+00  4.4373E-04 -2.0478E-03  0.0000E+00
  1.0937E+02  0.0000E+00  4.4166E-04 -1.6732E-03  0.0000E+00
  1.1000E+02  0.0000E+00  4.3882E-04 -1.5857E-03  0.0000E+00
  1.1100E+02  3.8007E-04  4.3623E-04 -1.1607E-03  0.0000E+00
  1.1200E+02  0.0000E+00  4.3477E-04 -1.6809E-03  0.0000E+00
  1.1300E+02  0.0000E+00  4.3341E-04 -1.6053E-03  0.0000E+00
  1.1400E+02  0.0000E+00  4.3121E-04 -8.6087E-04  0.0000E+00
  1.1500E+02  0.0000E+00  4.2758E-04 -7.6135E-04  0.0000E+00
  1.1600E+02  0.0000E+00  4.2230E-04 -7.8780E-04  0.0000E+00
  1.1700E+02  0.0000E+00  4.1544E-04 -1.6159E-03  0.0000E+00
  1.1800E+02  0.0000E+00  4.0721E-04 -1.0061E-03  0.0000E+00
  1.1900E+02  0.0000E+00  3.9788E-04 -8.9571E-04  0.0000E+00
  1.2000E+02  0.0000E+00  3.8774E-04 -9.0281E-04  0.0000E+00
  1.2100E+02  0.0000E+00  3.7705E-04 -1.2347E-03  0.0000E+00
  1.2200E+02  0.0000E+00  3.6604E-04 -1.2167E-03  0.0000E+00
  1.2300E+02  3.3592E-04  3.5488E-04 -4.9501E-04  0.0000E+00
  1.2400E+02  0.0000E+00  3.4371E-04 -7.7258E-04  0.0000E+00
  1.2500E+02  0.0000E+00  3.3265E-04 -8.3469E-04  0.0000E+00
  1.2600E+02  0.0000E+00  3.2177E-04 -7.7306E-04  0.0000E+00
  1.2700E+02  0.0000E+00  3.1116E-04 -7.5644E-04  0.0000E+00
  1.2800E+02  0.0000E+00  3.0085E-04 -8.4234E-04  0.0000E+00
  1.2900E+02  0.0000E+00  2.9088E-04 -6.3527E-04  0.0000E+00
  1.3000E+02  0.0000E+00  2.8127E-04 -6.6848E-04  0.0000E+00
  1.3100E+02  0.0000E+00  2.7202E-04 -8.0629E-04  0.0000E+00
  1.3200E+02  0.0000E+00  2.6314E-04 -7.4816E-04  0.0000E+00
  1.3300E+02  0.0000E+00  2.5463E-04 -5.2222E-04  0.0000E+00
  1.3306E+02  2.3268E-03  2.5410E-04  1.8241E-03  0.0000E+00
  1.3322E+02  2.3268E-03  2.5280E-04  1.7713E-03  0.0000E+00
  1.3352E+02  2.3268E-03  2.5035E-04  1.7010E-03  0.0000E+00
  1.3400E+02  2.3268E-03  2.4642E-04  1.6196E-03  0.0000E+00
  1.3425E+02  8.4283E-03  2.4442E-04  7.7113E-03  0.0000E+00
  1.3448E+02  8.4283E-03  2.4261E-04  7.6292E-03  0.0000E+00
  1.3500E+02  8.4283E-03  2.3856E-04  7.5143E-03  0.0000E+00
  1.3597E+02  0.0000E+00  2.3127E-04 -7.2806E-04  0.0000E+00
  1.3600E+02  0.0000E+00  2.3108E-04 -7.2569E-04  0.0000E+00
  1.3613E+02  0.0000E+00  2.3014E-04 -1.1938E-03  0.0000E+00
  1.3677E+02  0.0000E+00  2.2557E-04 -1.0902E-03  0.0000E+00
  1.3700E+02  0.0000E+00  2.2392E-04 -1.0560E-03  0.0000E+00
  1.3800E+02  0.0000E+00  2.1721E-04 -1.0584E-03  0.0000E+00
  1.3812E+02  3.2875E-02  2.1639E-04  3.1408E-02  0.0000E+00
  1.3821E+02  3.2875E-02  2.1582E-04  3.1246E-02  0.0000E+00
  1.3840E+02  3.2875E-02  2.1462E-04  3.1057E-02  0.0000E+00
  1.3867E+02  3.2875E-02  2.1288E-04  3.0910E-02  0.0000E+00
  1.3900E+02  3.2875E-02  2.1083E-04  3.0816E-02  0.0000E+00
  1.3948E+02  0.0000E+00  2.0799E-04 -2.0458E-03  0.0000E+00
  1.4000E+02  0.0000E+00  2.0517E-04 -1.9402E-03  0.0000E+00
  1.4100E+02  9.7546E-05  2.0411E-04 -1.0556E-03  0.0000E+00
  1.4200E+02  0.0000E+00  2.1269E-04 -1.5206E-03  0.0000E+00
  1.4300E+02  0.0000E+00  2.3626E-04 -1.7736E-03  0.0000E+00
  1.4400E+02  0.0000E+00  2.7702E-04 -1.7739E-03  0.0000E+00
  1.4500E+02  0.0000E+00  3.3101E-04 -1.7536E-03  0.0000E+00
  1.4600E+02  0.0000E+00  3.8889E-04 -1.7679E-03  0.0000E+00
  1.4650E+02  4.0098E-03  4.1792E-04  2.1153E-03  0.0000E+00
  1.4700E+02  4.0098E-03  4.4474E-04  1.9977E-03  0.0000E+00
  1.4800E+02  0.0000E+00  4.8472E-04 -1.7002E-03  0.0000E+00
  1.4900E+02  0.0000E+00  5.1154E-04 -1.1053E-03  0.0000E+00
  1.5000E+02  0.0000E+00  5.2700E-04 -1.0553E-03  0.0000E+00
