title = "dataset transp-updrld"
variables = "x", "y", "z", "h_w", "p_w", "s_w", "theta_a", "s_a", "theta_g", "q_root"
zone t = "Flow variables, solution time =  1.000E+01 days        " i =   30, j =   30, k =    1,  f=point
  0.000000E+000  0.000000E+000  0.000000E+000 -0.100000E+003 -0.100000E+003  0.214462E+000  0.115809E+000  0.785538E+000  0.424191E+000  0.000000E+000
  0.344828E-001  0.000000E+000  0.000000E+000 -0.100000E+003 -0.100000E+003  0.214462E+000  0.115809E+000  0.785538E+000  0.424191E+000  0.000000E+000
  0.689655E-001  0.000000E+000  0.000000E+000 -0.100000E+003 -0.100000E+003  0.214462E+000  0.115809E+000  0.785538E+000  0.424191E+000  0.000000E+000
  0.103448E+000  0.000000E+000  0.000000E+000 -0.100000E+003 -0.100000E+003  0.214462E+000  0.115809E+000  0.785538E+000  0.424191E+000  0.000000E+000
  0.137931E+000  0.000000E+000  0.000000E+000 -0.100000E+003 -0.100000E+003  0.214462E+000  0.115809E+000  0.785538E+000  0.424191E+000  0.000000E+000
  0.172414E+000  0.000000E+000  0.000000E+000 -0.100000E+003 -0.100000E+003  0.214462E+000  0.115809E+000  0.785538E+000  0.424191E+000  0.000000E+000
  0.206897E+000  0.000000E+000  0.000000E+000 -0.100000E+003 -0.100000E+003  0.214462E+000  0.115809E+000  0.785538E+000  0.424191E+000  0.000000E+000
  0.241379E+000  0.000000E+000  0.000000E+000 -0.100000E+003 -0.100000E+003  0.214462E+000  0.115809E+000  0.785538E+000  0.424191E+000  0.000000E+000
  0.275862E+000  0.000000E+000  0.000000E+000 -0.100000E+003 -0.100000E+003  0.214462E+000  0.115809E+000  0.785538E+000  0.424191E+000  0.000000E+000
  0.310345E+000  0.000000E+000  0.000000E+000 -0.100000E+003 -0.100000E+003  0.214462E+000  0.115809E+000  0.785538E+000  0.424191E+000  0.000000E+000
  0.344828E+000  0.000000E+000  0.000000E+000 -0.100000E+003 -0.100000E+003  0.214462E+000  0.115809E+000  0.785538E+000  0.424191E+000  0.000000E+000
  0.379310E+000  0.000000E+000  0.000000E+000 -0.100000E+003 -0.100000E+003  0.214462E+000  0.115809E+000  0.785538E+000  0.424191E+000  0.000000E+000
  0.413793E+000  0.000000E+000  0.000000E+000 -0.100000E+003 -0.100000E+003  0.214462E+000  0.115809E+000  0.785538E+000  0.424191E+000  0.000000E+000
  0.448276E+000  0.000000E+000  0.000000E+000 -0.100000E+003 -0.100000E+003  0.214462E+000  0.115809E+000  0.785538E+000  0.424191E+000  0.000000E+000
  0.482759E+000  0.000000E+000  0.000000E+000 -0.100000E+003 -0.100000E+003  0.214462E+000  0.115809E+000  0.785538E+000  0.424191E+000  0.000000E+000
  0.517241E+000  0.000000E+000  0.000000E+000 -0.100000E+003 -0.100000E+003  0.214462E+000  0.115809E+000  0.785538E+000  0.424191E+000  0.000000E+000
  0.551724E+000  0.000000E+000  0.000000E+000 -0.100000E+003 -0.100000E+003  0.214462E+000  0.115809E+000  0.785538E+000  0.424191E+000  0.000000E+000
  0.586207E+000  0.000000E+000  0.000000E+000 -0.100000E+003 -0.100000E+003  0.214462E+000  0.115809E+000  0.785538E+000  0.424191E+000  0.000000E+000
  0.620690E+000  0.000000E+000  0.000000E+000 -0.100000E+003 -0.100000E+003  0.214462E+000  0.115809E+000  0.785538E+000  0.424191E+000  0.000000E+000
  0.655172E+000  0.000000E+000  0.000000E+000 -0.100000E+003 -0.100000E+003  0.214462E+000  0.115809E+000  0.785538E+000  0.424191E+000  0.000000E+000
  0.689655E+000  0.000000E+000  0.000000E+000 -0.100000E+003 -0.100000E+003  0.214462E+000  0.115809E+000  0.785538E+000  0.424191E+000  0.000000E+000
  0.724138E+000  0.000000E+000  0.000000E+000 -0.100000E+003 -0.100000E+003  0.214462E+000  0.115809E+000  0.785538E+000  0.424191E+000  0.000000E+000
  0.758621E+000  0.000000E+000  0.000000E+000 -0.100000E+003 -0.100000E+003  0.214462E+000  0.115809E+000  0.785538E+000  0.424191E+000  0.000000E+000
  0.793103E+000  0.000000E+000  0.000000E+000 -0.100000E+003 -0.100000E+003  0.214462E+000  0.115809E+000  0.785538E+000  0.424191E+000  0.000000E+000
  0.827586E+000  0.000000E+000  0.000000E+000 -0.100000E+003 -0.100000E+003  0.214462E+000  0.115809E+000  0.785538E+000  0.424191E+000  0.000000E+000
  0.862069E+000  0.000000E+000  0.000000E+000 -0.100000E+003 -0.100000E+003  0.214462E+000  0.115809E+000  0.785538E+000  0.424191E+000  0.000000E+000
  0.896552E+000  0.000000E+000  0.000000E+000 -0.100000E+003 -0.100000E+003  0.214462E+000  0.115809E+000  0.785538E+000  0.424191E+000  0.000000E+000
  0.931034E+000  0.000000E+000  0.000000E+000 -0.100000E+003 -0.100000E+003  0.214462E+000  0.115809E+000  0.785538E+000  0.424191E+000  0.000000E+000
  0.965517E+000  0.000000E+000  0.000000E+000 -0.100000E+003 -0.100000E+003  0.214462E+000  0.115809E+000  0.785538E+000  0.424191E+000  0.000000E+000
  0.100000E+001  0.000000E+000  0.000000E+000 -0.100000E+003 -0.100000E+003  0.214462E+000  0.115809E+000  0.785538E+000  0.424191E+000  0.000000E+000
  0.000000E+000  0.000000E+000  0.344828E-001 -0.367271E+002 -0.367616E+002  0.262781E+000  0.141902E+000  0.737219E+000  0.398098E+000  0.000000E+000
  0.344828E-001  0.000000E+000  0.344828E-001 -0.367271E+002 -0.367616E+002  0.262781E+000  0.141902E+000  0.737219E+000  0.398098E+000  0.000000E+000
  0.689655E-001  0.000000E+000  0.344828E-001 -0.367273E+002 -0.367617E+002  0.262781E+000  0.141902E+000  0.737219E+000  0.398098E+000  0.000000E+000
  0.103448E+000  0.000000E+000  0.344828E-001 -0.367274E+002 -0.367619E+002  0.262780E+000  0.141901E+000  0.737220E+000  0.398099E+000  0.000000E+000
  0.137931E+000  0.000000E+000  0.344828E-001 -0.367276E+002 -0.367621E+002  0.262780E+000  0.141901E+000  0.737220E+000  0.398099E+000  0.000000E+000
  0.172414E+000  0.000000E+000  0.344828E-001 -0.367279E+002 -0.367624E+002  0.262780E+000  0.141901E+000  0.737220E+000  0.398099E+000  0.000000E+000
  0.206897E+000  0.000000E+000  0.344828E-001 -0.367282E+002 -0.367627E+002  0.262779E+000  0.141901E+000  0.737221E+000  0.398099E+000  0.000000E+000
  0.241379E+000  0.000000E+000  0.344828E-001 -0.367286E+002 -0.367631E+002  0.262778E+000  0.141900E+000  0.737222E+000  0.398100E+000  0.000000E+000
  0.275862E+000  0.000000E+000  0.344828E-001 -0.367290E+002 -0.367634E+002  0.262778E+000  0.141900E+000  0.737222E+000  0.398100E+000  0.000000E+000
  0.310345E+000  0.000000E+000  0.344828E-001 -0.367293E+002 -0.367638E+002  0.262777E+000  0.141900E+000  0.737223E+000  0.398100E+000  0.000000E+000
  0.344828E+000  0.000000E+000  0.344828E-001 -0.367296E+002 -0.367641E+002  0.262777E+000  0.141899E+000  0.737223E+000  0.398101E+000  0.000000E+000
  0.379310E+000  0.000000E+000  0.344828E-001 -0.367299E+002 -0.367644E+002  0.262776E+000  0.141899E+000  0.737224E+000  0.398101E+000  0.000000E+000
  0.413793E+000  0.000000E+000  0.344828E-001 -0.367301E+002 -0.367646E+002  0.262776E+000  0.141899E+000  0.737224E+000  0.398101E+000  0.000000E+000
  0.448276E+000  0.000000E+000  0.344828E-001 -0.367303E+002 -0.367647E+002  0.262776E+000  0.141899E+000  0.737224E+000  0.398101E+000  0.000000E+000
  0.482759E+000  0.000000E+000  0.344828E-001 -0.367303E+002 -0.367648E+002  0.262775E+000  0.141899E+000  0.737225E+000  0.398101E+000  0.000000E+000
  0.517241E+000  0.000000E+000  0.344828E-001 -0.367303E+002 -0.367647E+002  0.262776E+000  0.141899E+000  0.737224E+000  0.398101E+000  0.000000E+000
  0.551724E+000  0.000000E+000  0.344828E-001 -0.367301E+002 -0.367646E+002  0.262776E+000  0.141899E+000  0.737224E+000  0.398101E+000  0.000000E+000
  0.586207E+000  0.000000E+000  0.344828E-001 -0.367299E+002 -0.367644E+002  0.262776E+000  0.141899E+000  0.737224E+000  0.398101E+000  0.000000E+000
  0.620690E+000  0.000000E+000  0.344828E-001 -0.367296E+002 -0.367641E+002  0.262777E+000  0.141899E+000  0.737223E+000  0.398101E+000  0.000000E+000
  0.655172E+000  0.000000E+000  0.344828E-001 -0.367293E+002 -0.367638E+002  0.262777E+000  0.141900E+000  0.737223E+000  0.398100E+000  0.000000E+000
  0.689655E+000  0.000000E+000  0.344828E-001 -0.367289E+002 -0.367634E+002  0.262778E+000  0.141900E+000  0.737222E+000  0.398100E+000  0.000000E+000
  0.724138E+000  0.000000E+000  0.344828E-001 -0.367285E+002 -0.367630E+002  0.262779E+000  0.141900E+000  0.737221E+000  0.398100E+000  0.000000E+000
  0.758621E+000  0.000000E+000  0.344828E-001 -0.367282E+002 -0.367626E+002  0.262779E+000  0.141901E+000  0.737221E+000  0.398099E+000  0.000000E+000
  0.793103E+000  0.000000E+000  0.344828E-001 -0.367278E+002 -0.367623E+002  0.262780E+000  0.141901E+000  0.737220E+000  0.398099E+000  0.000000E+000
  0.827586E+000  0.000000E+000  0.344828E-001 -0.367275E+002 -0.367620E+002  0.262780E+000  0.141901E+000  0.737220E+000  0.398099E+000  0.000000E+000
  0.862069E+000  0.000000E+000  0.344828E-001 -0.367272E+002 -0.367617E+002  0.262781E+000  0.141902E+000  0.737219E+000  0.398098E+000  0.000000E+000
  0.896552E+000  0.000000E+000  0.344828E-001 -0.367270E+002 -0.367615E+002  0.262781E+000  0.141902E+000  0.737219E+000  0.398098E+000  0.000000E+000
  0.931034E+000  0.000000E+000  0.344828E-001 -0.367269E+002 -0.367613E+002  0.262781E+000  0.141902E+000  0.737219E+000  0.398098E+000  0.000000E+000
  0.965517E+000  0.000000E+000  0.344828E-001 -0.367268E+002 -0.367613E+002  0.262782E+000  0.141902E+000  0.737218E+000  0.398098E+000  0.000000E+000
  0.100000E+001  0.000000E+000  0.344828E-001 -0.367267E+002 -0.367612E+002  0.262782E+000  0.141902E+000  0.737218E+000  0.398098E+000  0.000000E+000
  0.000000E+000  0.000000E+000  0.689655E-001 -0.232294E+002 -0.232983E+002  0.295403E+000  0.159518E+000  0.704597E+000  0.380482E+000  0.000000E+000
  0.344828E-001  0.000000E+000  0.689655E-001 -0.232294E+002 -0.232984E+002  0.295403E+000  0.159518E+000  0.704597E+000  0.380482E+000  0.000000E+000
  0.689655E-001  0.000000E+000  0.689655E-001 -0.232295E+002 -0.232985E+002  0.295403E+000  0.159517E+000  0.704597E+000  0.380483E+000  0.000000E+000
  0.103448E+000  0.000000E+000  0.689655E-001 -0.232297E+002 -0.232986E+002  0.295402E+000  0.159517E+000  0.704598E+000  0.380483E+000  0.000000E+000
  0.137931E+000  0.000000E+000  0.689655E-001 -0.232299E+002 -0.232988E+002  0.295401E+000  0.159517E+000  0.704599E+000  0.380483E+000  0.000000E+000
  0.172414E+000  0.000000E+000  0.689655E-001 -0.232301E+002 -0.232991E+002  0.295400E+000  0.159516E+000  0.704600E+000  0.380484E+000  0.000000E+000
  0.206897E+000  0.000000E+000  0.689655E-001 -0.232305E+002 -0.232994E+002  0.295399E+000  0.159516E+000  0.704601E+000  0.380484E+000  0.000000E+000
  0.241379E+000  0.000000E+000  0.689655E-001 -0.232308E+002 -0.232998E+002  0.295398E+000  0.159515E+000  0.704602E+000  0.380485E+000  0.000000E+000
  0.275862E+000  0.000000E+000  0.689655E-001 -0.232311E+002 -0.233001E+002  0.295397E+000  0.159514E+000  0.704603E+000  0.380486E+000  0.000000E+000
  0.310345E+000  0.000000E+000  0.689655E-001 -0.232315E+002 -0.233004E+002  0.295396E+000  0.159514E+000  0.704604E+000  0.380486E+000  0.000000E+000
  0.344828E+000  0.000000E+000  0.689655E-001 -0.232318E+002 -0.233008E+002  0.295395E+000  0.159513E+000  0.704605E+000  0.380487E+000  0.000000E+000
  0.379310E+000  0.000000E+000  0.689655E-001 -0.232321E+002 -0.233010E+002  0.295394E+000  0.159513E+000  0.704606E+000  0.380487E+000  0.000000E+000
  0.413793E+000  0.000000E+000  0.689655E-001 -0.232323E+002 -0.233012E+002  0.295393E+000  0.159512E+000  0.704607E+000  0.380488E+000  0.000000E+000
  0.448276E+000  0.000000E+000  0.689655E-001 -0.232324E+002 -0.233014E+002  0.295393E+000  0.159512E+000  0.704607E+000  0.380488E+000  0.000000E+000
  0.482759E+000  0.000000E+000  0.689655E-001 -0.232324E+002 -0.233014E+002  0.295392E+000  0.159512E+000  0.704608E+000  0.380488E+000  0.000000E+000
  0.517241E+000  0.000000E+000  0.689655E-001 -0.232324E+002 -0.233014E+002  0.295393E+000  0.159512E+000  0.704607E+000  0.380488E+000  0.000000E+000
  0.551724E+000  0.000000E+000  0.689655E-001 -0.232323E+002 -0.233012E+002  0.295393E+000  0.159512E+000  0.704607E+000  0.380488E+000  0.000000E+000
  0.586207E+000  0.000000E+000  0.689655E-001 -0.232320E+002 -0.233010E+002  0.295394E+000  0.159513E+000  0.704606E+000  0.380487E+000  0.000000E+000
  0.620690E+000  0.000000E+000  0.689655E-001 -0.232318E+002 -0.233007E+002  0.295395E+000  0.159513E+000  0.704605E+000  0.380487E+000  0.000000E+000
  0.655172E+000  0.000000E+000  0.689655E-001 -0.232314E+002 -0.233004E+002  0.295396E+000  0.159514E+000  0.704604E+000  0.380486E+000  0.000000E+000
  0.689655E+000  0.000000E+000  0.689655E-001 -0.232311E+002 -0.233000E+002  0.295397E+000  0.159514E+000  0.704603E+000  0.380486E+000  0.000000E+000
  0.724138E+000  0.000000E+000  0.689655E-001 -0.232307E+002 -0.232997E+002  0.295398E+000  0.159515E+000  0.704602E+000  0.380485E+000  0.000000E+000
  0.758621E+000  0.000000E+000  0.689655E-001 -0.232304E+002 -0.232993E+002  0.295400E+000  0.159516E+000  0.704600E+000  0.380484E+000  0.000000E+000
  0.793103E+000  0.000000E+000  0.689655E-001 -0.232300E+002 -0.232990E+002  0.295401E+000  0.159516E+000  0.704599E+000  0.380484E+000  0.000000E+000
  0.827586E+000  0.000000E+000  0.689655E-001 -0.232297E+002 -0.232987E+002  0.295402E+000  0.159517E+000  0.704598E+000  0.380483E+000  0.000000E+000
  0.862069E+000  0.000000E+000  0.689655E-001 -0.232295E+002 -0.232984E+002  0.295403E+000  0.159517E+000  0.704597E+000  0.380483E+000  0.000000E+000
  0.896552E+000  0.000000E+000  0.689655E-001 -0.232293E+002 -0.232982E+002  0.295403E+000  0.159518E+000  0.704597E+000  0.380482E+000  0.000000E+000
  0.931034E+000  0.000000E+000  0.689655E-001 -0.232291E+002 -0.232981E+002  0.295404E+000  0.159518E+000  0.704596E+000  0.380482E+000  0.000000E+000
  0.965517E+000  0.000000E+000  0.689655E-001 -0.232290E+002 -0.232980E+002  0.295404E+000  0.159518E+000  0.704596E+000  0.380482E+000  0.000000E+000
  0.100000E+001  0.000000E+000  0.689655E-001 -0.232290E+002 -0.232980E+002  0.295404E+000  0.159518E+000  0.704596E+000  0.380482E+000  0.000000E+000
  0.000000E+000  0.000000E+000  0.103448E+000 -0.177449E+002 -0.178483E+002  0.318576E+000  0.172031E+000  0.681424E+000  0.367969E+000  0.000000E+000
  0.344828E-001  0.000000E+000  0.103448E+000 -0.177449E+002 -0.178483E+002  0.318576E+000  0.172031E+000  0.681424E+000  0.367969E+000  0.000000E+000
  0.689655E-001  0.000000E+000  0.103448E+000 -0.177450E+002 -0.178484E+002  0.318575E+000  0.172031E+000  0.681425E+000  0.367969E+000  0.000000E+000
  0.103448E+000  0.000000E+000  0.103448E+000 -0.177452E+002 -0.178486E+002  0.318574E+000  0.172030E+000  0.681426E+000  0.367970E+000  0.000000E+000
  0.137931E+000  0.000000E+000  0.103448E+000 -0.177454E+002 -0.178488E+002  0.318573E+000  0.172029E+000  0.681427E+000  0.367971E+000  0.000000E+000
  0.172414E+000  0.000000E+000  0.103448E+000 -0.177457E+002 -0.178491E+002  0.318572E+000  0.172029E+000  0.681428E+000  0.367971E+000  0.000000E+000
  0.206897E+000  0.000000E+000  0.103448E+000 -0.177460E+002 -0.178494E+002  0.318570E+000  0.172028E+000  0.681430E+000  0.367972E+000  0.000000E+000
  0.241379E+000  0.000000E+000  0.103448E+000 -0.177463E+002 -0.178498E+002  0.318568E+000  0.172027E+000  0.681432E+000  0.367973E+000  0.000000E+000
  0.275862E+000  0.000000E+000  0.103448E+000 -0.177467E+002 -0.178501E+002  0.318566E+000  0.172026E+000  0.681434E+000  0.367974E+000  0.000000E+000
  0.310345E+000  0.000000E+000  0.103448E+000 -0.177470E+002 -0.178505E+002  0.318564E+000  0.172025E+000  0.681436E+000  0.367975E+000  0.000000E+000
  0.344828E+000  0.000000E+000  0.103448E+000 -0.177474E+002 -0.178508E+002  0.318563E+000  0.172024E+000  0.681437E+000  0.367976E+000  0.000000E+000
  0.379310E+000  0.000000E+000  0.103448E+000 -0.177476E+002 -0.178511E+002  0.318561E+000  0.172023E+000  0.681439E+000  0.367977E+000  0.000000E+000
  0.413793E+000  0.000000E+000  0.103448E+000 -0.177478E+002 -0.178513E+002  0.318560E+000  0.172022E+000  0.681440E+000  0.367978E+000  0.000000E+000
  0.448276E+000  0.000000E+000  0.103448E+000 -0.177480E+002 -0.178514E+002  0.318559E+000  0.172022E+000  0.681441E+000  0.367978E+000  0.000000E+000
  0.482759E+000  0.000000E+000  0.103448E+000 -0.177480E+002 -0.178515E+002  0.318559E+000  0.172022E+000  0.681441E+000  0.367978E+000  0.000000E+000
  0.517241E+000  0.000000E+000  0.103448E+000 -0.177480E+002 -0.178514E+002  0.318559E+000  0.172022E+000  0.681441E+000  0.367978E+000  0.000000E+000
  0.551724E+000  0.000000E+000  0.103448E+000 -0.177478E+002 -0.178513E+002  0.318560E+000  0.172022E+000  0.681440E+000  0.367978E+000  0.000000E+000
  0.586207E+000  0.000000E+000  0.103448E+000 -0.177476E+002 -0.178511E+002  0.318561E+000  0.172023E+000  0.681439E+000  0.367977E+000  0.000000E+000
  0.620690E+000  0.000000E+000  0.103448E+000 -0.177473E+002 -0.178508E+002  0.318563E+000  0.172024E+000  0.681437E+000  0.367976E+000  0.000000E+000
  0.655172E+000  0.000000E+000  0.103448E+000 -0.177470E+002 -0.178504E+002  0.318565E+000  0.172025E+000  0.681435E+000  0.367975E+000  0.000000E+000
  0.689655E+000  0.000000E+000  0.103448E+000 -0.177466E+002 -0.178501E+002  0.318566E+000  0.172026E+000  0.681434E+000  0.367974E+000  0.000000E+000
  0.724138E+000  0.000000E+000  0.103448E+000 -0.177463E+002 -0.178497E+002  0.318568E+000  0.172027E+000  0.681432E+000  0.367973E+000  0.000000E+000
  0.758621E+000  0.000000E+000  0.103448E+000 -0.177459E+002 -0.178493E+002  0.318570E+000  0.172028E+000  0.681430E+000  0.367972E+000  0.000000E+000
  0.793103E+000  0.000000E+000  0.103448E+000 -0.177455E+002 -0.178490E+002  0.318572E+000  0.172029E+000  0.681428E+000  0.367971E+000  0.000000E+000
  0.827586E+000  0.000000E+000  0.103448E+000 -0.177452E+002 -0.178487E+002  0.318574E+000  0.172030E+000  0.681426E+000  0.367970E+000  0.000000E+000
  0.862069E+000  0.000000E+000  0.103448E+000 -0.177450E+002 -0.178484E+002  0.318575E+000  0.172031E+000  0.681425E+000  0.367969E+000  0.000000E+000
  0.896552E+000  0.000000E+000  0.103448E+000 -0.177448E+002 -0.178482E+002  0.318576E+000  0.172031E+000  0.681424E+000  0.367969E+000  0.000000E+000
  0.931034E+000  0.000000E+000  0.103448E+000 -0.177446E+002 -0.178481E+002  0.318577E+000  0.172032E+000  0.681423E+000  0.367968E+000  0.000000E+000
  0.965517E+000  0.000000E+000  0.103448E+000 -0.177445E+002 -0.178480E+002  0.318577E+000  0.172032E+000  0.681423E+000  0.367968E+000  0.000000E+000
  0.100000E+001  0.000000E+000  0.103448E+000 -0.177445E+002 -0.178479E+002  0.318578E+000  0.172032E+000  0.681422E+000  0.367968E+000  0.000000E+000
  0.000000E+000  0.000000E+000  0.137931E+000 -0.147629E+002 -0.149008E+002  0.336266E+000  0.181583E+000  0.663734E+000  0.358417E+000  0.000000E+000
  0.344828E-001  0.000000E+000  0.137931E+000 -0.147630E+002 -0.149009E+002  0.336265E+000  0.181583E+000  0.663735E+000  0.358417E+000  0.000000E+000
  0.689655E-001  0.000000E+000  0.137931E+000 -0.147631E+002 -0.149010E+002  0.336265E+000  0.181583E+000  0.663735E+000  0.358417E+000  0.000000E+000
  0.103448E+000  0.000000E+000  0.137931E+000 -0.147632E+002 -0.149012E+002  0.336263E+000  0.181582E+000  0.663737E+000  0.358418E+000  0.000000E+000
  0.137931E+000  0.000000E+000  0.137931E+000 -0.147635E+002 -0.149014E+002  0.336262E+000  0.181581E+000  0.663738E+000  0.358419E+000  0.000000E+000
  0.172414E+000  0.000000E+000  0.137931E+000 -0.147638E+002 -0.149017E+002  0.336260E+000  0.181580E+000  0.663740E+000  0.358420E+000  0.000000E+000
  0.206897E+000  0.000000E+000  0.137931E+000 -0.147642E+002 -0.149021E+002  0.336257E+000  0.181579E+000  0.663743E+000  0.358421E+000  0.000000E+000
  0.241379E+000  0.000000E+000  0.137931E+000 -0.147645E+002 -0.149025E+002  0.336255E+000  0.181577E+000  0.663745E+000  0.358423E+000  0.000000E+000
  0.275862E+000  0.000000E+000  0.137931E+000 -0.147649E+002 -0.149029E+002  0.336252E+000  0.181576E+000  0.663748E+000  0.358424E+000  0.000000E+000
  0.310345E+000  0.000000E+000  0.137931E+000 -0.147653E+002 -0.149033E+002  0.336249E+000  0.181574E+000  0.663751E+000  0.358426E+000  0.000000E+000
  0.344828E+000  0.000000E+000  0.137931E+000 -0.147657E+002 -0.149036E+002  0.336247E+000  0.181573E+000  0.663753E+000  0.358427E+000  0.000000E+000
  0.379310E+000  0.000000E+000  0.137931E+000 -0.147660E+002 -0.149039E+002  0.336244E+000  0.181572E+000  0.663756E+000  0.358428E+000  0.000000E+000
  0.413793E+000  0.000000E+000  0.137931E+000 -0.147662E+002 -0.149042E+002  0.336243E+000  0.181571E+000  0.663757E+000  0.358429E+000  0.000000E+000
  0.448276E+000  0.000000E+000  0.137931E+000 -0.147664E+002 -0.149043E+002  0.336242E+000  0.181571E+000  0.663758E+000  0.358429E+000  0.000000E+000
  0.482759E+000  0.000000E+000  0.137931E+000 -0.147664E+002 -0.149044E+002  0.336241E+000  0.181570E+000  0.663759E+000  0.358430E+000  0.000000E+000
  0.517241E+000  0.000000E+000  0.137931E+000 -0.147664E+002 -0.149043E+002  0.336242E+000  0.181571E+000  0.663758E+000  0.358429E+000  0.000000E+000
  0.551724E+000  0.000000E+000  0.137931E+000 -0.147662E+002 -0.149042E+002  0.336243E+000  0.181571E+000  0.663757E+000  0.358429E+000  0.000000E+000
  0.586207E+000  0.000000E+000  0.137931E+000 -0.147660E+002 -0.149039E+002  0.336245E+000  0.181572E+000  0.663755E+000  0.358428E+000  0.000000E+000
  0.620690E+000  0.000000E+000  0.137931E+000 -0.147657E+002 -0.149036E+002  0.336247E+000  0.181573E+000  0.663753E+000  0.358427E+000  0.000000E+000
  0.655172E+000  0.000000E+000  0.137931E+000 -0.147653E+002 -0.149032E+002  0.336249E+000  0.181575E+000  0.663751E+000  0.358425E+000  0.000000E+000
  0.689655E+000  0.000000E+000  0.137931E+000 -0.147649E+002 -0.149028E+002  0.336252E+000  0.181576E+000  0.663748E+000  0.358424E+000  0.000000E+000
  0.724138E+000  0.000000E+000  0.137931E+000 -0.147645E+002 -0.149024E+002  0.336255E+000  0.181578E+000  0.663745E+000  0.358422E+000  0.000000E+000
  0.758621E+000  0.000000E+000  0.137931E+000 -0.147641E+002 -0.149020E+002  0.336258E+000  0.181579E+000  0.663742E+000  0.358421E+000  0.000000E+000
  0.793103E+000  0.000000E+000  0.137931E+000 -0.147637E+002 -0.149016E+002  0.336260E+000  0.181581E+000  0.663740E+000  0.358419E+000  0.000000E+000
  0.827586E+000  0.000000E+000  0.137931E+000 -0.147633E+002 -0.149013E+002  0.336263E+000  0.181582E+000  0.663737E+000  0.358418E+000  0.000000E+000
  0.862069E+000  0.000000E+000  0.137931E+000 -0.147630E+002 -0.149010E+002  0.336265E+000  0.181583E+000  0.663735E+000  0.358417E+000  0.000000E+000
  0.896552E+000  0.000000E+000  0.137931E+000 -0.147628E+002 -0.149008E+002  0.336266E+000  0.181584E+000  0.663734E+000  0.358416E+000  0.000000E+000
  0.931034E+000  0.000000E+000  0.137931E+000 -0.147627E+002 -0.149006E+002  0.336267E+000  0.181584E+000  0.663733E+000  0.358416E+000  0.000000E+000
  0.965517E+000  0.000000E+000  0.137931E+000 -0.147626E+002 -0.149005E+002  0.336268E+000  0.181585E+000  0.663732E+000  0.358415E+000  0.000000E+000
  0.100000E+001  0.000000E+000  0.137931E+000 -0.147625E+002 -0.149004E+002  0.336268E+000  0.181585E+000  0.663732E+000  0.358415E+000  0.000000E+000
  0.000000E+000  0.000000E+000  0.172414E+000 -0.128647E+002 -0.130371E+002  0.350495E+000  0.189267E+000  0.649505E+000  0.350733E+000  0.000000E+000
  0.344828E-001  0.000000E+000  0.172414E+000 -0.128648E+002 -0.130372E+002  0.350494E+000  0.189267E+000  0.649506E+000  0.350733E+000  0.000000E+000
  0.689655E-001  0.000000E+000  0.172414E+000 -0.128649E+002 -0.130373E+002  0.350493E+000  0.189266E+000  0.649507E+000  0.350734E+000  0.000000E+000
  0.103448E+000  0.000000E+000  0.172414E+000 -0.128651E+002 -0.130375E+002  0.350492E+000  0.189265E+000  0.649508E+000  0.350735E+000  0.000000E+000
  0.137931E+000  0.000000E+000  0.172414E+000 -0.128654E+002 -0.130378E+002  0.350489E+000  0.189264E+000  0.649511E+000  0.350736E+000  0.000000E+000
  0.172414E+000  0.000000E+000  0.172414E+000 -0.128658E+002 -0.130382E+002  0.350486E+000  0.189263E+000  0.649514E+000  0.350737E+000  0.000000E+000
  0.206897E+000  0.000000E+000  0.172414E+000 -0.128662E+002 -0.130386E+002  0.350483E+000  0.189261E+000  0.649517E+000  0.350739E+000  0.000000E+000
  0.241379E+000  0.000000E+000  0.172414E+000 -0.128666E+002 -0.130390E+002  0.350479E+000  0.189259E+000  0.649521E+000  0.350741E+000  0.000000E+000
  0.275862E+000  0.000000E+000  0.172414E+000 -0.128671E+002 -0.130395E+002  0.350475E+000  0.189257E+000  0.649525E+000  0.350743E+000  0.000000E+000
  0.310345E+000  0.000000E+000  0.172414E+000 -0.128675E+002 -0.130400E+002  0.350471E+000  0.189254E+000  0.649529E+000  0.350746E+000  0.000000E+000
  0.344828E+000  0.000000E+000  0.172414E+000 -0.128680E+002 -0.130404E+002  0.350468E+000  0.189252E+000  0.649532E+000  0.350748E+000  0.000000E+000
  0.379310E+000  0.000000E+000  0.172414E+000 -0.128683E+002 -0.130407E+002  0.350464E+000  0.189251E+000  0.649536E+000  0.350749E+000  0.000000E+000
  0.413793E+000  0.000000E+000  0.172414E+000 -0.128686E+002 -0.130410E+002  0.350462E+000  0.189250E+000  0.649538E+000  0.350750E+000  0.000000E+000
  0.448276E+000  0.000000E+000  0.172414E+000 -0.128688E+002 -0.130412E+002  0.350461E+000  0.189249E+000  0.649539E+000  0.350751E+000  0.000000E+000
  0.482759E+000  0.000000E+000  0.172414E+000 -0.128688E+002 -0.130413E+002  0.350460E+000  0.189248E+000  0.649540E+000  0.350752E+000  0.000000E+000
  0.517241E+000  0.000000E+000  0.172414E+000 -0.128688E+002 -0.130412E+002  0.350461E+000  0.189249E+000  0.649539E+000  0.350751E+000  0.000000E+000
  0.551724E+000  0.000000E+000  0.172414E+000 -0.128686E+002 -0.130410E+002  0.350462E+000  0.189250E+000  0.649538E+000  0.350750E+000  0.000000E+000
  0.586207E+000  0.000000E+000  0.172414E+000 -0.128683E+002 -0.130407E+002  0.350465E+000  0.189251E+000  0.649535E+000  0.350749E+000  0.000000E+000
  0.620690E+000  0.000000E+000  0.172414E+000 -0.128679E+002 -0.130403E+002  0.350468E+000  0.189253E+000  0.649532E+000  0.350747E+000  0.000000E+000
  0.655172E+000  0.000000E+000  0.172414E+000 -0.128675E+002 -0.130399E+002  0.350472E+000  0.189255E+000  0.649528E+000  0.350745E+000  0.000000E+000
  0.689655E+000  0.000000E+000  0.172414E+000 -0.128670E+002 -0.130394E+002  0.350476E+000  0.189257E+000  0.649524E+000  0.350743E+000  0.000000E+000
  0.724138E+000  0.000000E+000  0.172414E+000 -0.128665E+002 -0.130389E+002  0.350480E+000  0.189259E+000  0.649520E+000  0.350741E+000  0.000000E+000
  0.758621E+000  0.000000E+000  0.172414E+000 -0.128661E+002 -0.130385E+002  0.350484E+000  0.189261E+000  0.649516E+000  0.350739E+000  0.000000E+000
  0.793103E+000  0.000000E+000  0.172414E+000 -0.128656E+002 -0.130380E+002  0.350487E+000  0.189263E+000  0.649513E+000  0.350737E+000  0.000000E+000
  0.827586E+000  0.000000E+000  0.172414E+000 -0.128652E+002 -0.130376E+002  0.350491E+000  0.189265E+000  0.649509E+000  0.350735E+000  0.000000E+000
  0.862069E+000  0.000000E+000  0.172414E+000 -0.128649E+002 -0.130373E+002  0.350493E+000  0.189266E+000  0.649507E+000  0.350734E+000  0.000000E+000
  0.896552E+000  0.000000E+000  0.172414E+000 -0.128646E+002 -0.130370E+002  0.350496E+000  0.189268E+000  0.649504E+000  0.350732E+000  0.000000E+000
  0.931034E+000  0.000000E+000  0.172414E+000 -0.128644E+002 -0.130369E+002  0.350497E+000  0.189269E+000  0.649503E+000  0.350731E+000  0.000000E+000
  0.965517E+000  0.000000E+000  0.172414E+000 -0.128643E+002 -0.130367E+002  0.350498E+000  0.189269E+000  0.649502E+000  0.350731E+000  0.000000E+000
  0.100000E+001  0.000000E+000  0.172414E+000 -0.128643E+002 -0.130367E+002  0.350499E+000  0.189269E+000  0.649501E+000  0.350731E+000  0.000000E+000
  0.000000E+000  0.000000E+000  0.206897E+000 -0.115346E+002 -0.117415E+002  0.362357E+000  0.195673E+000  0.637643E+000  0.344327E+000  0.000000E+000
  0.344828E-001  0.000000E+000  0.206897E+000 -0.115346E+002 -0.117415E+002  0.362357E+000  0.195673E+000  0.637643E+000  0.344327E+000  0.000000E+000
  0.689655E-001  0.000000E+000  0.206897E+000 -0.115348E+002 -0.117417E+002  0.362355E+000  0.195672E+000  0.637645E+000  0.344328E+000  0.000000E+000
  0.103448E+000  0.000000E+000  0.206897E+000 -0.115350E+002 -0.117419E+002  0.362353E+000  0.195671E+000  0.637647E+000  0.344329E+000  0.000000E+000
  0.137931E+000  0.000000E+000  0.206897E+000 -0.115354E+002 -0.117423E+002  0.362349E+000  0.195669E+000  0.637651E+000  0.344331E+000  0.000000E+000
  0.172414E+000  0.000000E+000  0.206897E+000 -0.115358E+002 -0.117427E+002  0.362345E+000  0.195666E+000  0.637655E+000  0.344334E+000  0.000000E+000
  0.206897E+000  0.000000E+000  0.206897E+000 -0.115363E+002 -0.117432E+002  0.362340E+000  0.195664E+000  0.637660E+000  0.344336E+000  0.000000E+000
  0.241379E+000  0.000000E+000  0.206897E+000 -0.115368E+002 -0.117437E+002  0.362335E+000  0.195661E+000  0.637665E+000  0.344339E+000  0.000000E+000
  0.275862E+000  0.000000E+000  0.206897E+000 -0.115374E+002 -0.117443E+002  0.362329E+000  0.195658E+000  0.637671E+000  0.344342E+000  0.000000E+000
  0.310345E+000  0.000000E+000  0.206897E+000 -0.115379E+002 -0.117448E+002  0.362324E+000  0.195655E+000  0.637676E+000  0.344345E+000  0.000000E+000
  0.344828E+000  0.000000E+000  0.206897E+000 -0.115384E+002 -0.117453E+002  0.362319E+000  0.195652E+000  0.637681E+000  0.344348E+000  0.000000E+000
  0.379310E+000  0.000000E+000  0.206897E+000 -0.115389E+002 -0.117458E+002  0.362314E+000  0.195650E+000  0.637686E+000  0.344350E+000  0.000000E+000
  0.413793E+000  0.000000E+000  0.206897E+000 -0.115392E+002 -0.117461E+002  0.362311E+000  0.195648E+000  0.637689E+000  0.344352E+000  0.000000E+000
  0.448276E+000  0.000000E+000  0.206897E+000 -0.115395E+002 -0.117464E+002  0.362309E+000  0.195647E+000  0.637691E+000  0.344353E+000  0.000000E+000
  0.482759E+000  0.000000E+000  0.206897E+000 -0.115395E+002 -0.117464E+002  0.362308E+000  0.195646E+000  0.637692E+000  0.344354E+000  0.000000E+000
  0.517241E+000  0.000000E+000  0.206897E+000 -0.115394E+002 -0.117463E+002  0.362309E+000  0.195647E+000  0.637691E+000  0.344353E+000  0.000000E+000
  0.551724E+000  0.000000E+000  0.206897E+000 -0.115392E+002 -0.117461E+002  0.362311E+000  0.195648E+000  0.637689E+000  0.344352E+000  0.000000E+000