title = "dataset hydro"
variables = "x", "y", "z", "h_w", "p_w", "s_w", "theta_w", "q_root", "evap"
zone t = "Flow variables, solution time =  1.000E+01 days        " i =  500, j =    1, k =    1,  f=point
  0.0000000E+00  0.0000000E+00  0.0000000E+00 -0.1000000E+03 -0.1000000E+03  0.2144615E+00  0.1158092E+00  0.1350260E-12  0.0000000E+00
  0.0000000E+00  0.0000000E+00  0.3338898E-02 -0.4330405E+02 -0.4330739E+02  0.2529221E+00  0.1365779E+00  0.3337247E-11  0.0000000E+00
  0.0000000E+00  0.0000000E+00  0.6677796E-02 -0.2890430E+02 -0.2891098E+02  0.2789455E+00  0.1506306E+00  0.6911597E-11  0.0000000E+00
  0.0000000E+00  0.0000000E+00  0.1001669E-01 -0.2262134E+02 -0.2263136E+02  0.2977695E+00  0.1607955E+00  0.9962093E-11  0.0000000E+00
  0.0000000E+00  0.0000000E+00  0.1335559E-01 -0.1908369E+02 -0.1909704E+02  0.3123755E+00  0.1686828E+00  0.1249487E-10  0.0000000E+00
  0.0000000E+00  0.0000000E+00  0.1669449E-01 -0.1678747E+02 -0.1680416E+02  0.3242956E+00  0.1751196E+00  0.1462937E-10  0.0000000E+00
  0.0000000E+00  0.0000000E+00  0.2003339E-01 -0.1515868E+02 -0.1517872E+02  0.3343758E+00  0.1805629E+00  0.1646396E-10  0.0000000E+00
  0.0000000E+00  0.0000000E+00  0.2337229E-01 -0.1393193E+02 -0.1395530E+02  0.3431224E+00  0.1852861E+00  0.1806889E-10  0.0000000E+00
  0.0000000E+00  0.0000000E+00  0.2671119E-01 -0.1296744E+02 -0.1299415E+02  0.3508594E+00  0.1894641E+00  0.1949378E-10  0.0000000E+00
  0.0000000E+00  0.0000000E+00  0.3005008E-01 -0.1218443E+02 -0.1221448E+02  0.3578057E+00  0.1932151E+00  0.2077435E-10  0.0000000E+00
  0.0000000E+00  0.0000000E+00  0.3338898E-01 -0.1153276E+02 -0.1156615E+02  0.3641156E+00  0.1966224E+00  0.2193690E-10  0.0000000E+00
  0.0000000E+00  0.0000000E+00  0.3672788E-01 -0.1097960E+02 -0.1101633E+02  0.3699020E+00  0.1997471E+00  0.2300125E-10  0.0000000E+00
  0.0000000E+00  0.0000000E+00  0.4006678E-01 -0.1050248E+02 -0.1054255E+02  0.3752498E+00  0.2026349E+00  0.2398268E-10  0.0000000E+00
  0.0000000E+00  0.0000000E+00  0.4340568E-01 -0.1008545E+02 -0.1012886E+02  0.3802247E+00  0.2053213E+00  0.2489318E-10  0.0000000E+00
  0.0000000E+00  0.0000000E+00  0.4674457E-01 -0.9716856E+01 -0.9763600E+01  0.3848782E+00  0.2078342E+00  0.2574233E-10  0.0000000E+00
  0.0000000E+00  0.0000000E+00  0.5008347E-01 -0.9387962E+01 -0.9438045E+01  0.3892518E+00  0.2101959E+00  0.2653787E-10  0.0000000E+00
  0.0000000E+00  0.0000000E+00  0.5342237E-01 -0.9092085E+01 -0.9145507E+01  0.3933791E+00  0.2124247E+00  0.2728618E-10  0.0000000E+00
  0.0000000E+00  0.0000000E+00  0.5676127E-01 -0.8824010E+01 -0.8880771E+01  0.3972880E+00  0.2145355E+00  0.2799257E-10  0.0000000E+00
  0.0000000E+00  0.0000000E+00  0.6010017E-01 -0.8579604E+01 -0.8639704E+01  0.4010018E+00  0.2165410E+00  0.2866147E-10  0.0000000E+00
  0.0000000E+00  0.0000000E+00  0.6343907E-01 -0.8355545E+01 -0.8418984E+01  0.4045400E+00  0.2184516E+00  0.2929666E-10  0.0000000E+00
  0.0000000E+00  0.0000000E+00  0.6677796E-01 -0.8149125E+01 -0.8215903E+01  0.4079195E+00  0.2202765E+00  0.2990136E-10  0.0000000E+00
  0.0000000E+00  0.0000000E+00  0.7011686E-01 -0.7958118E+01 -0.8028235E+01  0.4111546E+00  0.2220235E+00  0.3047836E-10  0.0000000E+00
  0.0000000E+00  0.0000000E+00  0.7345576E-01 -0.7780670E+01 -0.7854126E+01  0.4142577E+00  0.2236992E+00  0.3103007E-10  0.0000000E+00
  0.0000000E+00  0.0000000E+00  0.7679466E-01 -0.7615225E+01 -0.7692020E+01  0.4172397E+00  0.2253094E+00  0.3155858E-10  0.0000000E+00
  0.0000000E+00  0.0000000E+00  0.8013356E-01 -0.7460466E+01 -0.7540600E+01  0.4201101E+00  0.2268595E+00  0.3206576E-10  0.0000000E+00
  0.0000000E+00  0.0000000E+00  0.8347245E-01 -0.7315272E+01 -0.7398744E+01  0.4228773E+00  0.2283538E+00  0.3255323E-10  0.0000000E+00
  0.0000000E+00  0.0000000E+00  0.8681135E-01 -0.7178676E+01 -0.7265488E+01  0.4255488E+00  0.2297964E+00  0.3302246E-10  0.0000000E+00
  0.0000000E+00  0.0000000E+00  0.9015025E-01 -0.7049847E+01 -0.7139997E+01  0.4281312E+00  0.2311908E+00  0.3347472E-10  0.0000000E+00
  0.0000000E+00  0.0000000E+00  0.9348915E-01 -0.6928060E+01 -0.7021549E+01  0.4306305E+00  0.2325405E+00  0.3391119E-10  0.0000000E+00
  0.0000000E+00  0.0000000E+00  0.9682805E-01 -0.6812682E+01 -0.6909510E+01  0.4330519E+00  0.2338480E+00  0.3433291E-10  0.0000000E+00
  0.0000000E+00  0.0000000E+00  0.1001669E+00 -0.6703157E+01 -0.6803324E+01  0.4354005E+00  0.2351162E+00  0.3474081E-10  0.0000000E+00
  0.0000000E+00  0.0000000E+00  0.1035058E+00 -0.6598995E+01 -0.6702501E+01  0.4376804E+00  0.2363474E+00  0.3513576E-10  0.0000000E+00
  0.0000000E+00  0.0000000E+00  0.1068447E+00 -0.6499761E+01 -0.6606605E+01  0.4398957E+00  0.2375437E+00  0.3551851E-10  0.0000000E+00
  0.0000000E+00  0.0000000E+00  0.1101836E+00 -0.6405068E+01 -0.6515251E+01  0.4420501E+00  0.2387070E+00  0.3588979E-10  0.0000000E+00
  0.0000000E+00  0.0000000E+00  0.1135225E+00 -0.6314571E+01 -0.6428093E+01  0.4441467E+00  0.2398392E+00  0.3625023E-10  0.0000000E+00
  0.0000000E+00  0.0000000E+00  0.1168614E+00 -0.6227960E+01 -0.6344821E+01  0.4461888E+00  0.2409419E+00  0.3660042E-10  0.0000000E+00
  0.0000000E+00  0.0000000E+00  0.1202003E+00 -0.6144957E+01 -0.6265157E+01  0.4481790E+00  0.2420167E+00  0.3694091E-10  0.0000000E+00
  0.0000000E+00  0.0000000E+00  0.1235392E+00 -0.6065311E+01 -0.6188850E+01  0.4501200E+00  0.2430648E+00  0.3727221E-10  0.0000000E+00
  0.0000000E+00  0.0000000E+00  0.1268781E+00 -0.5988794E+01 -0.6115672E+01  0.4520141E+00  0.2440876E+00  0.3759476E-10  0.0000000E+00
  0.0000000E+00  0.0000000E+00  0.1302170E+00 -0.5915200E+01 -0.6045417E+01  0.4538635E+00  0.2450863E+00  0.3790900E-10  0.0000000E+00
  0.0000000E+00  0.0000000E+00  0.1335559E+00 -0.5844342E+01 -0.5977898E+01  0.4556703E+00  0.2460619E+00  0.3821532E-10  0.0000000E+00
  0.0000000E+00  0.0000000E+00  0.1368948E+00 -0.5776049E+01 -0.5912944E+01  0.4574363E+00  0.2470156E+00  0.3851409E-10  0.0000000E+00
  0.0000000E+00  0.0000000E+00  0.1402337E+00 -0.5710164E+01 -0.5850397E+01  0.4591634E+00  0.2479482E+00  0.3880566E-10  0.0000000E+00
  0.0000000E+00  0.0000000E+00  0.1435726E+00 -0.5646543E+01 -0.5790116E+01  0.4608532E+00  0.2488607E+00  0.3909033E-10  0.0000000E+00
  0.0000000E+00  0.0000000E+00  0.1469115E+00 -0.5585056E+01 -0.5731967E+01  0.4625072E+00  0.2497539E+00  0.3936842E-10  0.0000000E+00
  0.0000000E+00  0.0000000E+00  0.1502504E+00 -0.5525581E+01 -0.5675831E+01  0.4641269E+00  0.2506286E+00  0.3964019E-10  0.0000000E+00
  0.0000000E+00  0.0000000E+00  0.1535893E+00 -0.5468006E+01 -0.5621596E+01  0.4657137E+00  0.2514854E+00  0.3990591E-10  0.0000000E+00
  0.0000000E+00  0.0000000E+00  0.1569282E+00 -0.5412229E+01 -0.5569157E+01  0.4672687E+00  0.2523251E+00  0.4016582E-10  0.0000000E+00
  0.0000000E+00  0.0000000E+00  0.1602671E+00 -0.5358154E+01 -0.5518421E+01  0.4687933E+00  0.2531484E+00  0.4042016E-10  0.0000000E+00
  0.0000000E+00  0.0000000E+00  0.1636060E+00 -0.5305693E+01 -0.5469299E+01  0.4702884E+00  0.2539558E+00  0.4066913E-10  0.0000000E+00
  0.0000000E+00  0.0000000E+00  0.1669449E+00 -0.5254763E+01 -0.5421708E+01  0.4717553E+00  0.2547479E+00  0.4091294E-10  0.0000000E+00
  0.0000000E+00  0.0000000E+00  0.1702838E+00 -0.5205288E+01 -0.5375572E+01  0.4731948E+00  0.2555252E+00  0.4115179E-10  0.0000000E+00
  0.0000000E+00  0.0000000E+00  0.1736227E+00 -0.5157198E+01 -0.5330821E+01  0.4746080E+00  0.2562883E+00  0.4138585E-10  0.0000000E+00
  0.0000000E+00  0.0000000E+00  0.1769616E+00 -0.5110426E+01 -0.5287387E+01  0.4759957E+00  0.2570377E+00  0.4161530E-10  0.0000000E+00
  0.0000000E+00  0.0000000E+00  0.1803005E+00 -0.5064909E+01 -0.5245210E+01  0.4773588E+00  0.2577737E+00  0.4184029E-10  0.0000000E+00
  0.0000000E+00  0.0000000E+00  0.1836394E+00 -0.5020591E+01 -0.5204230E+01  0.4786980E+00  0.2584969E+00  0.4206098E-10  0.0000000E+00
  0.0000000E+00  0.0000000E+00  0.1869783E+00 -0.4977417E+01 -0.5164395E+01  0.4800142E+00  0.2592077E+00  0.4227751E-10  0.0000000E+00
  0.0000000E+00  0.0000000E+00  0.1903172E+00 -0.4935336E+01 -0.5125653E+01  0.4813080E+00  0.2599063E+00  0.4249003E-10  0.0000000E+00
  0.0000000E+00  0.0000000E+00  0.1936561E+00 -0.4894300E+01 -0.5087956E+01  0.4825802E+00  0.2605933E+00  0.4269866E-10  0.0000000E+00
  0.0000000E+00  0.0000000E+00  0.1969950E+00 -0.4854266E+01 -0.5051261E+01  0.4838314E+00  0.2612690E+00  0.4290352E-10  0.0000000E+00
  0.0000000E+00  0.0000000E+00  0.2003339E+00 -0.4815190E+01 -0.5015523E+01  0.4850623E+00  0.2619336E+00  0.4310474E-10  0.0000000E+00
  0.0000000E+00  0.0000000E+00  0.2036728E+00 -0.4777032E+01 -0.4980705E+01  0.4862734E+00  0.2625876E+00  0.4330243E-10  0.0000000E+00
  0.0000000E+00  0.0000000E+00  0.2070117E+00 -0.4739757E+01 -0.4946769E+01  0.4874652E+00  0.2632312E+00  0.4349670E-10  0.0000000E+00
  0.0000000E+00  0.0000000E+00  0.2103506E+00 -0.4703328E+01 -0.4913678E+01  0.4886384E+00  0.2638648E+00  0.4368765E-10  0.0000000E+00
  0.0000000E+00  0.0000000E+00  0.2136895E+00 -0.4667711E+01 -0.4881401E+01  0.4897935E+00  0.2644885E+00  0.4387537E-10  0.0000000E+00
  0.0000000E+00  0.0000000E+00  0.2170284E+00 -0.4632876E+01 -0.4849905E+01  0.4909309E+00  0.2651027E+00  0.4405996E-10  0.0000000E+00
  0.0000000E+00  0.0000000E+00  0.2203673E+00 -0.4598793E+01 -0.4819160E+01  0.4920512E+00  0.2657076E+00  0.4424150E-10  0.0000000E+00
  0.0000000E+00  0.0000000E+00  0.2237062E+00 -0.4565433E+01 -0.4789139E+01  0.4931547E+00  0.2663035E+00  0.4442010E-10  0.0000000E+00
  0.0000000E+00  0.0000000E+00  0.2270451E+00 -0.4532770E+01 -0.4759815E+01  0.4942420E+00  0.2668907E+00  0.4459582E-10  0.0000000E+00
  0.0000000E+00  0.0000000E+00  0.2303840E+00 -0.4500778E+01 -0.4731162E+01  0.4953133E+00  0.2674692E+00  0.4476874E-10  0.0000000E+00
  0.0000000E+00  0.0000000E+00  0.2337229E+00 -0.4469433E+01 -0.4703156E+01  0.4963693E+00  0.2680394E+00  0.4493894E-10  0.0000000E+00
  0.0000000E+00  0.0000000E+00  0.2370618E+00 -0.4438713E+01 -0.4675775E+01  0.4974101E+00  0.2686015E+00  0.4510649E-10  0.0000000E+00
  0.0000000E+00  0.0000000E+00  0.2404007E+00 -0.4408595E+01 -0.4648996E+01  0.4984363E+00  0.2691556E+00  0.4527147E-10  0.0000000E+00
  0.0000000E+00  0.0000000E+00  0.2437396E+00 -0.4379059E+01 -0.4622798E+01  0.4994480E+00  0.2697019E+00  0.4543393E-10  0.0000000E+00
  0.0000000E+00  0.0000000E+00  0.2470785E+00 -0.4350085E+01 -0.4597163E+01  0.5004458E+00  0.2702407E+00  0.4559394E-10  0.0000000E+00
  0.0000000E+00  0.0000000E+00  0.2504174E+00 -0.4321654E+01 -0.4572072E+01  0.5014299E+00  0.2707721E+00  0.4575156E-10  0.0000000E+00
  0.0000000E+00  0.0000000E+00  0.2537563E+00 -0.4293749E+01 -0.4547505E+01  0.5024006E+00  0.2712963E+00  0.4590685E-10  0.0000000E+00
  0.0000000E+00  0.0000000E+00  0.2570952E+00 -0.4266352E+01 -0.4523447E+01  0.5033583E+00  0.2718135E+00  0.4605987E-10  0.0000000E+00
  0.0000000E+00  0.0000000E+00  0.2604341E+00 -0.4239447E+01 -0.4499881E+01  0.5043032E+00  0.2723237E+00  0.4621067E-10  0.0000000E+00
  0.0000000E+00  0.0000000E+00  0.2637730E+00 -0.4213019E+01 -0.4476792E+01  0.5052356E+00  0.2728272E+00  0.4635931E-10  0.0000000E+00
  0.0000000E+00  0.0000000E+00  0.2671119E+00 -0.4187052E+01 -0.4454163E+01  0.5061559E+00  0.2733242E+00  0.4650583E-10  0.0000000E+00
  0.0000000E+00  0.0000000E+00  0.2704508E+00 -0.4161532E+01 -0.4431983E+01  0.5070641E+00  0.2738146E+00  0.4665029E-10  0.0000000E+00
  0.0000000E+00  0.0000000E+00  0.2737896E+00 -0.4136446E+01 -0.4410235E+01  0.5079607E+00  0.2742988E+00  0.4679272E-10  0.0000000E+00
  0.0000000E+00  0.0000000E+00  0.2771285E+00 -0.4111780E+01 -0.4388909E+01  0.5088459E+00  0.2747768E+00  0.4693319E-10  0.0000000E+00
  0.0000000E+00  0.0000000E+00  0.2804674E+00 -0.4087523E+01 -0.4367990E+01  0.5097198E+00  0.2752487E+00  0.4707173E-10  0.0000000E+00
  0.0000000E+00  0.0000000E+00  0.2838063E+00 -0.4063661E+01 -0.4347468E+01  0.5105828E+00  0.2757147E+00  0.4720837E-10  0.0000000E+00
  0.0000000E+00  0.0000000E+00  0.2871452E+00 -0.4040184E+01 -0.4327330E+01  0.5114350E+00  0.2761749E+00  0.4734318E-10  0.0000000E+00
  0.0000000E+00  0.0000000E+00  0.2904841E+00 -0.4017081E+01 -0.4307565E+01  0.5122767E+00  0.2766294E+00  0.4747618E-10  0.0000000E+00
  0.0000000E+00  0.0000000E+00  0.2938230E+00 -0.3994341E+01 -0.4288164E+01  0.5131081E+00  0.2770784E+00  0.4760741E-10  0.0000000E+00
  0.0000000E+00  0.0000000E+00  0.2971619E+00 -0.3971953E+01 -0.4269115E+01  0.5139294E+00  0.2775219E+00  0.4773691E-10  0.0000000E+00
  0.0000000E+00  0.0000000E+00  0.3005008E+00 -0.3949909E+01 -0.4250410E+01  0.5147407E+00  0.2779600E+00  0.4786471E-10  0.0000000E+00
  0.0000000E+00  0.0000000E+00  0.3038397E+00 -0.3928198E+01 -0.4232038E+01  0.5155423E+00  0.2783928E+00  0.4799086E-10  0.0000000E+00
  0.0000000E+00  0.0000000E+00  0.3071786E+00 -0.3906812E+01 -0.4213991E+01  0.5163343E+00  0.2788205E+00  0.4811538E-10  0.0000000E+00
  0.0000000E+00  0.0000000E+00  0.3105175E+00 -0.3885742E+01 -0.4196259E+01  0.5171170E+00  0.2792432E+00  0.4823830E-10  0.0000000E+00
  0.0000000E+00  0.0000000E+00  0.3138564E+00 -0.3864979E+01 -0.4178836E+01  0.5178905E+00  0.2796609E+00  0.4835967E-10  0.0000000E+00
  0.0000000E+00  0.0000000E+00  0.3171953E+00 -0.3844516E+01 -0.4161711E+01  0.5186550E+00  0.2800737E+00  0.4847950E-10  0.0000000E+00
  0.0000000E+00  0.0000000E+00  0.3205342E+00 -0.3824344E+01 -0.4144879E+01  0.5194106E+00  0.2804817E+00  0.4859783E-10  0.0000000E+00
  0.0000000E+00  0.0000000E+00  0.3238731E+00 -0.3804457E+01 -0.4128330E+01  0.5201574E+00  0.2808850E+00  0.4871469E-10  0.0000000E+00
  0.0000000E+00  0.0000000E+00  0.3272120E+00 -0.3784847E+01 -0.4112059E+01  0.5208958E+00  0.2812837E+00  0.4883011E-10  0.0000000E+00
  0.0000000E+00  0.0000000E+00  0.3305509E+00 -0.3765507E+01 -0.4096058E+01  0.5216257E+00  0.2816779E+00  0.4894411E-10  0.0000000E+00
  0.0000000E+00  0.0000000E+00  0.3338898E+00 -0.3746430E+01 -0.4080320E+01  0.5223474E+00  0.2820676E+00  0.4905672E-10  0.0000000E+00
  0.0000000E+00  0.0000000E+00  0.3372287E+00 -0.3727610E+01 -0.4064839E+01  0.5230610E+00  0.2824529E+00  0.4916796E-10  0.0000000E+00
  0.0000000E+00  0.0000000E+00  0.3405676E+00 -0.3709041E+01 -0.4049609E+01  0.5237666E+00  0.2828339E+00  0.4927786E-10  0.0000000E+00
  0.0000000E+00  0.0000000E+00  0.3439065E+00 -0.3690717E+01 -0.4034623E+01  0.5244643E+00  0.2832107E+00  0.4938645E-10  0.0000000E+00
  0.0000000E+00  0.0000000E+00  0.3472454E+00 -0.3672631E+01 -0.4019876E+01  0.5251544E+00  0.2835834E+00  0.4949375E-10  0.0000000E+00
  0.0000000E+00  0.0000000E+00  0.3505843E+00 -0.3654778E+01 -0.4005363E+01  0.5258368E+00  0.2839519E+00  0.4959977E-10  0.0000000E+00
  0.0000000E+00  0.0000000E+00  0.3539232E+00 -0.3637154E+01 -0.3991077E+01  0.5265118E+00  0.2843164E+00  0.4970455E-10  0.0000000E+00
  0.0000000E+00  0.0000000E+00  0.3572621E+00 -0.3619751E+01 -0.3977013E+01  0.5271795E+00  0.2846769E+00  0.4980811E-10  0.0000000E+00
  0.0000000E+00  0.0000000E+00  0.3606010E+00 -0.3602566E+01 -0.3963167E+01  0.5278399E+00  0.2850336E+00  0.4991046E-10  0.0000000E+00
  0.0000000E+00  0.0000000E+00  0.3639399E+00 -0.3585593E+01 -0.3949533E+01  0.5284933E+00  0.2853864E+00  0.5001163E-10  0.0000000E+00
  0.0000000E+00  0.0000000E+00  0.3672788E+00 -0.3568828E+01 -0.3936107E+01  0.5291396E+00  0.2857354E+00  0.5011163E-10  0.0000000E+00
  0.0000000E+00  0.0000000E+00  0.3706177E+00 -0.3552265E+01 -0.3922883E+01  0.5297791E+00  0.2860807E+00  0.5021049E-10  0.0000000E+00
  0.0000000E+00  0.0000000E+00  0.3739566E+00 -0.3535902E+01 -0.3909858E+01  0.5304118E+00  0.2864224E+00  0.5030823E-10  0.0000000E+00
  0.0000000E+00  0.0000000E+00  0.3772955E+00 -0.3519732E+01 -0.3897027E+01  0.5310378E+00  0.2867604E+00  0.5040486E-10  0.0000000E+00
  0.0000000E+00  0.0000000E+00  0.3806344E+00 -0.3503752E+01 -0.3884386E+01  0.5316572E+00  0.2870949E+00  0.5050040E-10  0.0000000E+00
  0.0000000E+00  0.0000000E+00  0.3839733E+00 -0.3487958E+01 -0.3871931E+01  0.5322702E+00  0.2874259E+00  0.5059487E-10  0.0000000E+00
  0.0000000E+00  0.0000000E+00  0.3873122E+00 -0.3472346E+01 -0.3859658E+01  0.5328768E+00  0.2877535E+00  0.5068829E-10  0.0000000E+00
  0.0000000E+00  0.0000000E+00  0.3906511E+00 -0.3456912E+01 -0.3847563E+01  0.5334771E+00  0.2880776E+00  0.5078067E-10  0.0000000E+00
  0.0000000E+00  0.0000000E+00  0.3939900E+00 -0.3441652E+01 -0.3835642E+01  0.5340712E+00  0.2883985E+00  0.5087203E-10  0.0000000E+00
  0.0000000E+00  0.0000000E+00  0.3973289E+00 -0.3426563E+01 -0.3823892E+01  0.5346593E+00  0.2887160E+00  0.5096238E-10  0.0000000E+00
  0.0000000E+00  0.0000000E+00  0.4006678E+00 -0.3411641E+01 -0.3812308E+01  0.5352413E+00  0.2890303E+00  0.5105175E-10  0.0000000E+00
  0.0000000E+00  0.0000000E+00  0.4040067E+00 -0.3396882E+01 -0.3800889E+01  0.5358173E+00  0.2893414E+00  0.5114015E-10  0.0000000E+00
  0.0000000E+00  0.0000000E+00  0.4073456E+00 -0.3382284E+01 -0.3789630E+01  0.5363876E+00  0.2896493E+00  0.5122758E-10  0.0000000E+00
  0.0000000E+00  0.0000000E+00  0.4106845E+00 -0.3367844E+01 -0.3778528E+01  0.5369520E+00  0.2899541E+00  0.5131407E-10  0.0000000E+00
  0.0000000E+00  0.0000000E+00  0.4140234E+00 -0.3353557E+01 -0.3767581E+01  0.5375108E+00  0.2902559E+00  0.5139964E-10  0.0000000E+00
  0.0000000E+00  0.0000000E+00  0.4173623E+00 -0.3339422E+01 -0.3756784E+01  0.5380640E+00  0.2905546E+00  0.5148428E-10  0.0000000E+00
  0.0000000E+00  0.0000000E+00  0.4207012E+00 -0.3325434E+01 -0.3746135E+01  0.5386117E+00  0.2908503E+00  0.5156802E-10  0.0000000E+00
  0.0000000E+00  0.0000000E+00  0.4240401E+00 -0.3311592E+01 -0.3735632E+01  0.5391539E+00  0.2911431E+00  0.5165088E-10  0.0000000E+00
  0.0000000E+00  0.0000000E+00  0.4273790E+00 -0.3297892E+01 -0.3725271E+01  0.5396907E+00  0.2914330E+00  0.5173286E-10  0.0000000E+00
  0.0000000E+00  0.0000000E+00  0.4307179E+00 -0.3284332E+01 -0.3715050E+01  0.5402223E+00  0.2917200E+00  0.5181397E-10  0.0000000E+00
  0.0000000E+00  0.0000000E+00  0.4340568E+00 -0.3270909E+01 -0.3704966E+01  0.5407486E+00  0.2920042E+00  0.5189423E-10  0.0000000E+00
  0.0000000E+00  0.0000000E+00  0.4373957E+00 -0.3257620E+01 -0.3695016E+01  0.5412697E+00  0.2922856E+00  0.5197366E-10  0.0000000E+00
  0.0000000E+00  0.0000000E+00  0.4407346E+00 -0.3244464E+01 -0.3685198E+01  0.5417857E+00  0.2925643E+00  0.5205225E-10  0.0000000E+00
  0.0000000E+00  0.0000000E+00  0.4440735E+00 -0.3231437E+01 -0.3675510E+01  0.5422967E+00  0.2928402E+00  0.5213003E-10  0.0000000E+00
  0.0000000E+00  0.0000000E+00  0.4474124E+00 -0.3218537E+01 -0.3665949E+01  0.5428028E+00  0.2931135E+00  0.5220701E-10  0.0000000E+00
  0.0000000E+00  0.0000000E+00  0.4507513E+00 -0.3205762E+01 -0.3656513E+01  0.5433039E+00  0.2933841E+00  0.5228319E-10  0.0000000E+00
  0.0000000E+00  0.0000000E+00  0.4540902E+00 -0.3193109E+01 -0.3647199E+01  0.5438002E+00  0.2936521E+00  0.5235859E-10  0.0000000E+00
  0.0000000E+00  0.0000000E+00  0.4574290E+00 -0.3180577E+01 -0.3638006E+01  0.5442917E+00  0.2939175E+00  0.5243322E-10  0.0000000E+00
  0.0000000E+00  0.0000000E+00  0.4607679E+00 -0.3168163E+01 -0.3628931E+01  0.5447784E+00  0.2941804E+00  0.5250708E-10  0.0000000E+00
  0.0000000E+00  0.0000000E+00  0.4641068E+00 -0.3155865E+01 -0.3619972E+01  0.5452606E+00  0.2944407E+00  0.5258020E-10  0.0000000E+00
  0.0000000E+00  0.0000000E+00  0.4674457E+00 -0.3143681E+01 -0.3611127E+01  0.5457381E+00  0.2946986E+00  0.5265257E-10  0.0000000E+00
  0.0000000E+00  0.0000000E+00  0.4707846E+00 -0.3131609E+01 -0.3602394E+01  0.5462110E+00  0.2949540E+00  0.5272422E-10  0.0000000E+00
  0.0000000E+00  0.0000000E+00  0.4741235E+00 -0.3119648E+01 -0.3593771E+01  0.5466795E+00  0.2952069E+00  0.5279514E-10  0.0000000E+00
  0.0000000E+00  0.0000000E+00  0.4774624E+00 -0.3107795E+01 -0.3585257E+01  0.5471435E+00  0.2954575E+00  0.5286534E-10  0.0000000E+00
  0.0000000E+00  0.0000000E+00  0.4808013E+00 -0.3096048E+01 -0.3576849E+01  0.5476032E+00  0.2957057E+00  0.5293485E-10  0.0000000E+00
  0.0000000E+00  0.0000000E+00  0.4841402E+00 -0.3084406E+01 -0.3568546E+01  0.5480585E+00  0.2959516E+00  0.5300366E-10  0.0000000E+00
  0.0000000E+00  0.0000000E+00  0.4874791E+00 -0.3072866E+01 -0.3560345E+01  0.5485095E+00  0.2961951E+00  0.5307179E-10  0.0000000E+00
  0.0000000E+00  0.0000000E+00  0.4908180E+00 -0.3061428E+01 -0.3552246E+01  0.5489563E+00  0.2964364E+00  0.5313923E-10  0.0000000E+00
  0.0000000E+00  0.0000000E+00  0.4941569E+00 -0.3050089E+01 -0.3544246E+01  0.5493989E+00  0.2966754E+00  0.5320601E-10  0.0000000E+00
  0.0000000E+00  0.0000000E+00  0.4974958E+00 -0.3038849E+01 -0.3536344E+01  0.5498374E+00  0.2969122E+00  0.5327214E-10  0.0000000E+00
  0.0000000E+00  0.0000000E+00  0.5008347E+00 -0.3027704E+01 -0.3528539E+01  0.5502718E+00  0.2971468E+00  0.5333760E-10  0.0000000E+00
  0.0000000E+00  0.0000000E+00  0.5041736E+00 -0.3016654E+01 -0.3520828E+01  0.5507021E+00  0.2973791E+00  0.5340243E-10  0.0000000E+00
  0.0000000E+00  0.0000000E+00  0.5075125E+00 -0.3005697E+01 -0.3513210E+01  0.5511285E+00  0.2976094E+00  0.5346662E-10  0.0000000E+00
  0.0000000E+00  0.0000000E+00  0.5108514E+00 -0.2994832E+01 -0.3505684E+01  0.5515509E+00  0.2978375E+00  0.5353018E-10  0.0000000E+00
  0.0000000E+00  0.0000000E+00  0.5141903E+00 -0.2984057E+01 -0.3498248E+01  0.5519694E+00  0.2980635E+00  0.5359312E-10  0.0000000E+00
  0.0000000E+00  0.0000000E+00  0.5175292E+00 -0.2973371E+01 -0.3490901E+01  0.5523840E+00  0.2982874E+00  0.5365545E-10  0.0000000E+00
  0.0000000E+00  0.0000000E+00  0.5208681E+00 -0.2962773E+01 -0.3483641E+01  0.5527948E+00  0.2985092E+00  0.5371718E-10  0.0000000E+00
  0.0000000E+00  0.0000000E+00  0.5242070E+00 -0.2952260E+01 -0.3476467E+01  0.5532019E+00  0.2987290E+00  0.5377830E-10  0.0000000E+00
  0.0000000E+00  0.0000000E+00  0.5275459E+00 -0.2941832E+01 -0.3469378E+01  0.5536052E+00  0.2989468E+00  0.5383883E-10  0.0000000E+00
  0.0000000E+00  0.0000000E+00  0.5308848E+00 -0.2931487E+01 -0.3462372E+01  0.5540048E+00  0.2991626E+00  0.5389878E-10  0.0000000E+00
  0.0000000E+00  0.0000000E+00  0.5342237E+00 -0.2921225E+01 -0.3455449E+01  0.5544007E+00  0.2993764E+00  0.5395816E-10  0.0000000E+00
  0.0000000E+00  0.0000000E+00  0.5375626E+00 -0.2911043E+01 -0.3448606E+01  0.5547930E+00  0.2995882E+00  0.5401696E-10  0.0000000E+00
  0.0000000E+00  0.0000000E+00  0.5409015E+00 -0.2900941E+01 -0.3441843E+01  0.5551818E+00  0.2997982E+00  0.5407519E-10  0.0000000E+00
  0.0000000E+00  0.0000000E+00  0.5442404E+00 -0.2890918E+01 -0.3435158E+01  0.5555670E+00  0.3000062E+00  0.5413287E-10  0.0000000E+00
  0.0000000E+00  0.0000000E+00  0.5475793E+00 -0.2880972E+01 -0.3428551E+01  0.5559487E+00  0.3002123E+00  0.5419000E-10  0.0000000E+00
  0.0000000E+00  0.0000000E+00  0.5509182E+00 -0.2871102E+01 -0.3422020E+01  0.5563270E+00  0.3004166E+00  0.5424658E-10  0.0000000E+00
  0.0000000E+00  0.0000000E+00  0.5542571E+00 -0.2861307E+01 -0.3415564E+01  0.5567018E+00  0.3006190E+00  0.5430263E-10  0.0000000E+00
  0.0000000E+00  0.0000000E+00  0.5575960E+00 -0.2851586E+01 -0.3409182E+01  0.5570732E+00  0.3008195E+00  0.5435814E-10  0.0000000E+00
  0.0000000E+00  0.0000000E+00  0.5609349E+00 -0.2841938E+01 -0.3402873E+01  0.5574413E+00  0.3010183E+00  0.5441312E-10  0.0000000E+00
  0.0000000E+00  0.0000000E+00  0.5642738E+00 -0.2832361E+01 -0.3396635E+01  0.5578060E+00  0.3012152E+00  0.5446758E-10  0.0000000E+00
  0.0000000E+00  0.0000000E+00  0.5676127E+00 -0.2822856E+01 -0.3390469E+01  0.5581674E+00  0.3014104E+00  0.5452153E-10  0.0000000E+00
  0.0000000E+00  0.0000000E+00  0.5709516E+00 -0.2813420E+01 -0.3384372E+01  0.5585256E+00  0.3016038E+00  0.5457496E-10  0.0000000E+00
  0.0000000E+00  0.0000000E+00  0.5742905E+00 -0.2804053E+01 -0.3378344E+01  0.5588806E+00  0.3017955E+00  0.5462790E-10  0.0000000E+00
  0.0000000E+00  0.0000000E+00  0.5776294E+00 -0.2794754E+01 -0.3372383E+01  0.5592323E+00  0.3019855E+00  0.5468033E-10  0.0000000E+00
  0.0000000E+00  0.0000000E+00  0.5809683E+00 -0.2785522E+01 -0.3366490E+01  0.5595809E+00  0.3021737E+00  0.5473227E-10  0.0000000E+00
  0.0000000E+00  0.0000000E+00  0.5843072E+00 -0.2776355E+01 -0.3360663E+01  0.5599264E+00  0.3023603E+00  0.5478372E-10  0.0000000E+00
  0.0000000E+00  0.0000000E+00  0.5876461E+00 -0.2767254E+01 -0.3354900E+01  0.5602688E+00  0.3025451E+00  0.5483469E-10  0.0000000E+00
  0.0000000E+00  0.0000000E+00  0.5909850E+00 -0.2758217E+01 -0.3349202E+01  0.5606081E+00  0.3027284E+00  0.5488518E-10  0.0000000E+00
  0.0000000E+00  0.0000000E+00  0.5943239E+00 -0.2749243E+01 -0.3343567E+01  0.5609444E+00  0.3029100E+00  0.5493519E-10  0.0000000E+00
  0.0000000E+00  0.0000000E+00  0.5976628E+00 -0.2740331E+01 -0.3337994E+01  0.5612776E+00  0.3030899E+00  0.5498474E-10  0.0000000E+00
  0.0000000E+00  0.0000000E+00  0.6010017E+00 -0.2731482E+01 -0.3332483E+01  0.5616079E+00  0.3032683E+00  0.5503383E-10  0.0000000E+00
  0.0000000E+00  0.0000000E+00  0.6043406E+00 -0.2722692E+01 -0.3327033E+01  0.5619352E+00  0.3034450E+00  0.5508246E-10  0.0000000E+00
  0.0000000E+00  0.0000000E+00  0.6076795E+00 -0.2713963E+01 -0.3321643E+01  0.5622596E+00  0.3036202E+00  0.5513063E-10  0.0000000E+00
  0.0000000E+00  0.0000000E+00  0.6110184E+00 -0.2705293E+01 -0.3316311E+01  0.5625811E+00  0.3037938E+00  0.5517835E-10  0.0000000E+00
  0.0000000E+00  0.0000000E+00  0.6143573E+00 -0.2696681E+01 -0.3311038E+01  0.5628998E+00  0.3039659E+00  0.5522563E-10  0.0000000E+00
  0.0000000E+00  0.0000000E+00  0.6176962E+00 -0.2688127E+01 -0.3305823E+01  0.5632155E+00  0.3041364E+00  0.5527247E-10  0.0000000E+00
  0.0000000E+00  0.0000000E+00  0.6210351E+00 -0.2679630E+01 -0.3300665E+01  0.5635285E+00  0.3043054E+00  0.5531888E-10  0.0000000E+00
  0.0000000E+00  0.0000000E+00  0.6243740E+00 -0.2671188E+01 -0.3295562E+01  0.5638387E+00  0.3044729E+00  0.5536485E-10  0.0000000E+00
  0.0000000E+00  0.0000000E+00  0.6277129E+00 -0.2662803E+01 -0.3290515E+01  0.5641461E+00  0.3046389E+00  0.5541040E-10  0.0000000E+00
  0.0000000E+00  0.0000000E+00  0.6310518E+00 -0.2654471E+01 -0.3285523E+01  0.5644508E+00  0.3048034E+00  0.5545552E-10  0.0000000E+00
  0.0000000E+00  0.0000000E+00  0.6343907E+00 -0.2646194E+01 -0.3280585E+01  0.5647528E+00  0.3049665E+00  0.5550023E-10  0.0000000E+00
  0.0000000E+00  0.0000000E+00  0.6377295E+00 -0.2637970E+01 -0.3275700E+01  0.5650521E+00  0.3051281E+00  0.5554452E-10  0.0000000E+00
  0.0000000E+00  0.0000000E+00  0.6410684E+00 -0.2629799E+01 -0.3270867E+01  0.5653487E+00  0.3052883E+00  0.5558840E-10  0.0000000E+00
  0.0000000E+00  0.0000000E+00  0.6444073E+00 -0.2621680E+01 -0.3266087E+01  0.5656427E+00  0.3054470E+00  0.5563187E-10  0.0000000E+00
  0.0000000E+00  0.0000000E+00  0.6477462E+00 -0.2613612E+01 -0.3261358E+01  0.5659340E+00  0.3056044E+00  0.5567494E-10  0.0000000E+00
  0.0000000E+00  0.0000000E+00  0.6510851E+00 -0.2605594E+01 -0.3256679E+01  0.5662228E+00  0.3057603E+00  0.5571761E-10  0.0000000E+00
  0.0000000E+00  0.0000000E+00  0.6544240E+00 -0.2597627E+01 -0.3252051E+01  0.5665090E+00  0.3059148E+00  0.5575989E-10  0.0000000E+00
  0.0000000E+00  0.0000000E+00  0.6577629E+00 -0.2589709E+01 -0.3247472E+01  0.5667926E+00  0.3060680E+00  0.5580178E-10  0.0000000E+00
  0.0000000E+00  0.0000000E+00  0.6611018E+00 -0.2581840E+01 -0.3242942E+01  0.5670737E+00  0.3062198E+00  0.5584328E-10  0.0000000E+00
  0.0000000E+00  0.0000000E+00  0.6644407E+00 -0.2574019E+01 -0.3238460E+01  0.5673524E+00  0.3063703E+00  0.5588440E-10  0.0000000E+00
  0.0000000E+00  0.0000000E+00  0.6677796E+00 -0.2566246E+01 -0.3234026E+01  0.5676285E+00  0.3065194E+00  0.5592513E-10  0.0000000E+00
  0.0000000E+00  0.0000000E+00  0.6711185E+00 -0.2558520E+01 -0.3229638E+01  0.5679022E+00  0.3066672E+00  0.5596549E-10  0.0000000E+00
  0.0000000E+00  0.0000000E+00  0.6744574E+00 -0.2550840E+01 -0.3225298E+01  0.5681734E+00  0.3068136E+00  0.5600548E-10  0.0000000E+00
  0.0000000E+00  0.0000000E+00  0.6777963E+00 -0.2543207E+01 -0.3221003E+01  0.5684422E+00  0.3069588E+00  0.5604510E-10  0.0000000E+00
  0.0000000E+00  0.0000000E+00  0.6811352E+00 -0.2535619E+01 -0.3216754E+01  0.5687087E+00  0.3071027E+00  0.5608435E-10  0.0000000E+00
  0.0000000E+00  0.0000000E+00  0.6844741E+00 -0.2528076E+01 -0.3212550E+01  0.5689727E+00  0.3072453E+00  0.5612323E-10  0.0000000E+00
  0.0000000E+00  0.0000000E+00  0.6878130E+00 -0.2520577E+01 -0.3208390E+01  0.5692344E+00  0.3073866E+00  0.5616176E-10  0.0000000E+00
  0.0000000E+00  0.0000000E+00  0.6911519E+00 -0.2513122E+01 -0.3204274E+01  0.5694937E+00  0.3075266E+00  0.5619993E-10  0.0000000E+00
  0.0000000E+00  0.0000000E+00  0.6944908E+00 -0.2505710E+01 -0.3200201E+01  0.5697508E+00  0.3076654E+00  0.5623775E-10  0.0000000E+00
  0.0000000E+00  0.0000000E+00  0.6978297E+00 -0.2498341E+01 -0.3196171E+01  0.5700055E+00  0.3078030E+00  0.5627522E-10  0.0000000E+00
  0.0000000E+00  0.0000000E+00  0.7011686E+00 -0.2491015E+01 -0.3192184E+01  0.5702580E+00  0.3079393E+00  0.5631235E-10  0.0000000E+00
  0.0000000E+00  0.0000000E+00  0.7045075E+00 -0.2483731E+01 -0.3188238E+01  0.5705082E+00  0.3080744E+00  0.5634913E-10  0.0000000E+00
  0.0000000E+00  0.0000000E+00  0.7078464E+00 -0.2476488E+01 -0.3184334E+01  0.5707561E+00  0.3082083E+00  0.5638556E-10  0.0000000E+00
  0.0000000E+00  0.0000000E+00  0.7111853E+00 -0.2469285E+01 -0.3180471E+01  0.5710019E+00  0.3083410E+00  0.5642167E-10  0.0000000E+00
  0.0000000E+00  0.0000000E+00  0.7145242E+00 -0.2462124E+01 -0.3176648E+01  0.5712454E+00  0.3084725E+00  0.5645743E-10  0.0000000E+00
  0.0000000E+00  0.0000000E+00  0.7178631E+00 -0.2455002E+01 -0.3172865E+01  0.5714867E+00  0.3086028E+00  0.5649287E-10  0.0000000E+00
  0.0000000E+00  0.0000000E+00  0.7212020E+00 -0.2447920E+01 -0.3169122E+01  0.5717259E+00  0.3087320E+00  0.5652797E-10  0.0000000E+00