title = "dataset transp-updrld"
variables = "x", "y", "z", "vx", "vy", "vz"
zone t = "velocities, solution time =  2.000E+01 days        " i =   29, j =   29, k =    1,  f=point
  0.172414E-001  0.000000E+000  0.172414E-001  0.140587E-007  0.000000E+000 -0.709674E-003
  0.517241E-001  0.000000E+000  0.172414E-001  0.415262E-007  0.000000E+000 -0.709332E-003
  0.862069E-001  0.000000E+000  0.172414E-001  0.670695E-007  0.000000E+000 -0.708664E-003
  0.120690E+000  0.000000E+000  0.172414E-001  0.894762E-007  0.000000E+000 -0.707702E-003
  0.155172E+000  0.000000E+000  0.172414E-001  0.107636E-006  0.000000E+000 -0.706492E-003
  0.189655E+000  0.000000E+000  0.172414E-001  0.120586E-006  0.000000E+000 -0.705091E-003
  0.224138E+000  0.000000E+000  0.172414E-001  0.127559E-006  0.000000E+000 -0.703570E-003
  0.258621E+000  0.000000E+000  0.172414E-001  0.128040E-006  0.000000E+000 -0.702004E-003
  0.293103E+000  0.000000E+000  0.172414E-001  0.121810E-006  0.000000E+000 -0.700474E-003
  0.327586E+000  0.000000E+000  0.172414E-001  0.108986E-006  0.000000E+000 -0.699062E-003
  0.362069E+000  0.000000E+000  0.172414E-001  0.900492E-007  0.000000E+000 -0.697845E-003
  0.396552E+000  0.000000E+000  0.172414E-001  0.658414E-007  0.000000E+000 -0.696892E-003
  0.431034E+000  0.000000E+000  0.172414E-001  0.375352E-007  0.000000E+000 -0.696260E-003
  0.465517E+000  0.000000E+000  0.172414E-001  0.657452E-008  0.000000E+000 -0.695991E-003
  0.500000E+000  0.000000E+000  0.172414E-001 -0.254121E-007  0.000000E+000 -0.696106E-003
  0.534483E+000  0.000000E+000  0.172414E-001 -0.567240E-007  0.000000E+000 -0.696608E-003
  0.568966E+000  0.000000E+000  0.172414E-001 -0.857233E-007  0.000000E+000 -0.697478E-003
  0.603448E+000  0.000000E+000  0.172414E-001 -0.110940E-006  0.000000E+000 -0.698681E-003
  0.637931E+000  0.000000E+000  0.172414E-001 -0.131161E-006  0.000000E+000 -0.700162E-003
  0.672414E+000  0.000000E+000  0.172414E-001 -0.145489E-006  0.000000E+000 -0.701855E-003
  0.706897E+000  0.000000E+000  0.172414E-001 -0.153371E-006  0.000000E+000 -0.703686E-003
  0.741379E+000  0.000000E+000  0.172414E-001 -0.154600E-006  0.000000E+000 -0.705574E-003
  0.775862E+000  0.000000E+000  0.172414E-001 -0.149287E-006  0.000000E+000 -0.707439E-003
  0.810345E+000  0.000000E+000  0.172414E-001 -0.137824E-006  0.000000E+000 -0.709203E-003
  0.844828E+000  0.000000E+000  0.172414E-001 -0.120829E-006  0.000000E+000 -0.710793E-003
  0.879310E+000  0.000000E+000  0.172414E-001 -0.991023E-007  0.000000E+000 -0.712146E-003
  0.913793E+000  0.000000E+000  0.172414E-001 -0.735759E-007  0.000000E+000 -0.713210E-003
  0.948276E+000  0.000000E+000  0.172414E-001 -0.452739E-007  0.000000E+000 -0.713942E-003
  0.991379E+000  0.000000E+000  0.172414E-001 -0.152811E-007  0.000000E+000 -0.714315E-003
  0.172414E-001  0.000000E+000  0.517241E-001  0.669424E-007  0.000000E+000 -0.700012E-003
  0.517241E-001  0.000000E+000  0.517241E-001  0.197730E-006  0.000000E+000 -0.699660E-003
  0.862069E-001  0.000000E+000  0.517241E-001  0.319336E-006  0.000000E+000 -0.698975E-003
  0.120690E+000  0.000000E+000  0.517241E-001  0.425971E-006  0.000000E+000 -0.697986E-003
  0.155172E+000  0.000000E+000  0.517241E-001  0.512341E-006  0.000000E+000 -0.696743E-003
  0.189655E+000  0.000000E+000  0.517241E-001  0.573863E-006  0.000000E+000 -0.695304E-003
  0.224138E+000  0.000000E+000  0.517241E-001  0.606904E-006  0.000000E+000 -0.693741E-003
  0.258621E+000  0.000000E+000  0.517241E-001  0.609026E-006  0.000000E+000 -0.692132E-003
  0.293103E+000  0.000000E+000  0.517241E-001  0.579213E-006  0.000000E+000 -0.690560E-003
  0.327586E+000  0.000000E+000  0.517241E-001  0.518059E-006  0.000000E+000 -0.689109E-003
  0.362069E+000  0.000000E+000  0.517241E-001  0.427874E-006  0.000000E+000 -0.687859E-003
  0.396552E+000  0.000000E+000  0.517241E-001  0.312674E-006  0.000000E+000 -0.686880E-003
  0.431034E+000  0.000000E+000  0.517241E-001  0.178040E-006  0.000000E+000 -0.686232E-003
  0.465517E+000  0.000000E+000  0.517241E-001  0.308272E-007  0.000000E+000 -0.685957E-003
  0.500000E+000  0.000000E+000  0.517241E-001 -0.121251E-006  0.000000E+000 -0.686078E-003
  0.534483E+000  0.000000E+000  0.517241E-001 -0.270154E-006  0.000000E+000 -0.686597E-003
  0.568966E+000  0.000000E+000  0.517241E-001 -0.408114E-006  0.000000E+000 -0.687496E-003
  0.603448E+000  0.000000E+000  0.517241E-001 -0.528150E-006  0.000000E+000 -0.688736E-003
  0.637931E+000  0.000000E+000  0.517241E-001 -0.624485E-006  0.000000E+000 -0.690262E-003
  0.672414E+000  0.000000E+000  0.517241E-001 -0.692832E-006  0.000000E+000 -0.692007E-003
  0.706897E+000  0.000000E+000  0.517241E-001 -0.730534E-006  0.000000E+000 -0.693892E-003
  0.741379E+000  0.000000E+000  0.517241E-001 -0.736568E-006  0.000000E+000 -0.695836E-003
  0.775862E+000  0.000000E+000  0.517241E-001 -0.711429E-006  0.000000E+000 -0.697756E-003
  0.810345E+000  0.000000E+000  0.517241E-001 -0.656946E-006  0.000000E+000 -0.699571E-003
  0.844828E+000  0.000000E+000  0.517241E-001 -0.576052E-006  0.000000E+000 -0.701208E-003
  0.879310E+000  0.000000E+000  0.517241E-001 -0.472546E-006  0.000000E+000 -0.702601E-003
  0.913793E+000  0.000000E+000  0.517241E-001 -0.350869E-006  0.000000E+000 -0.703695E-003
  0.948276E+000  0.000000E+000  0.517241E-001 -0.215915E-006  0.000000E+000 -0.704448E-003
  0.991379E+000  0.000000E+000  0.517241E-001 -0.728779E-007  0.000000E+000 -0.704832E-003
  0.172414E-001  0.000000E+000  0.862069E-001  0.163373E-006  0.000000E+000 -0.683874E-003
  0.517241E-001  0.000000E+000  0.862069E-001  0.482569E-006  0.000000E+000 -0.683502E-003
  0.862069E-001  0.000000E+000  0.862069E-001  0.779369E-006  0.000000E+000 -0.682776E-003
  0.120690E+000  0.000000E+000  0.862069E-001  0.103964E-005  0.000000E+000 -0.681730E-003
  0.155172E+000  0.000000E+000  0.862069E-001  0.125045E-005  0.000000E+000 -0.680412E-003
  0.189655E+000  0.000000E+000  0.862069E-001  0.140061E-005  0.000000E+000 -0.678887E-003
  0.224138E+000  0.000000E+000  0.862069E-001  0.148124E-005  0.000000E+000 -0.677230E-003
  0.258621E+000  0.000000E+000  0.862069E-001  0.148638E-005  0.000000E+000 -0.675523E-003
  0.293103E+000  0.000000E+000  0.862069E-001  0.141355E-005  0.000000E+000 -0.673855E-003
  0.327586E+000  0.000000E+000  0.862069E-001  0.126420E-005  0.000000E+000 -0.672315E-003
  0.362069E+000  0.000000E+000  0.862069E-001  0.104396E-005  0.000000E+000 -0.670987E-003
  0.396552E+000  0.000000E+000  0.862069E-001  0.762638E-006  0.000000E+000 -0.669947E-003
  0.431034E+000  0.000000E+000  0.862069E-001  0.433869E-006  0.000000E+000 -0.669259E-003
  0.465517E+000  0.000000E+000  0.862069E-001  0.743965E-007  0.000000E+000 -0.668968E-003
  0.500000E+000  0.000000E+000  0.862069E-001 -0.296950E-006  0.000000E+000 -0.669098E-003
  0.534483E+000  0.000000E+000  0.862069E-001 -0.660551E-006  0.000000E+000 -0.669652E-003
  0.568966E+000  0.000000E+000  0.862069E-001 -0.997437E-006  0.000000E+000 -0.670609E-003
  0.603448E+000  0.000000E+000  0.862069E-001 -0.129055E-005  0.000000E+000 -0.671928E-003
  0.637931E+000  0.000000E+000  0.862069E-001 -0.152578E-005  0.000000E+000 -0.673551E-003
  0.672414E+000  0.000000E+000  0.862069E-001 -0.169265E-005  0.000000E+000 -0.675406E-003
  0.706897E+000  0.000000E+000  0.862069E-001 -0.178467E-005  0.000000E+000 -0.677408E-003
  0.741379E+000  0.000000E+000  0.862069E-001 -0.179934E-005  0.000000E+000 -0.679472E-003
  0.775862E+000  0.000000E+000  0.862069E-001 -0.173788E-005  0.000000E+000 -0.681509E-003
  0.810345E+000  0.000000E+000  0.862069E-001 -0.160475E-005  0.000000E+000 -0.683433E-003
  0.844828E+000  0.000000E+000  0.862069E-001 -0.140711E-005  0.000000E+000 -0.685167E-003
  0.879310E+000  0.000000E+000  0.862069E-001 -0.115425E-005  0.000000E+000 -0.686642E-003
  0.913793E+000  0.000000E+000  0.862069E-001 -0.857018E-006  0.000000E+000 -0.687801E-003
  0.948276E+000  0.000000E+000  0.862069E-001 -0.527374E-006  0.000000E+000 -0.688598E-003
  0.991379E+000  0.000000E+000  0.862069E-001 -0.178001E-006  0.000000E+000 -0.689005E-003
  0.172414E-001  0.000000E+000  0.120690E+000  0.293590E-006  0.000000E+000 -0.663437E-003
  0.517241E-001  0.000000E+000  0.120690E+000  0.867261E-006  0.000000E+000 -0.663032E-003
  0.862069E-001  0.000000E+000  0.120690E+000  0.140084E-005  0.000000E+000 -0.662239E-003
  0.120690E+000  0.000000E+000  0.120690E+000  0.186899E-005  0.000000E+000 -0.661097E-003
  0.155172E+000  0.000000E+000  0.120690E+000  0.224848E-005  0.000000E+000 -0.659657E-003
  0.189655E+000  0.000000E+000  0.120690E+000  0.251914E-005  0.000000E+000 -0.657990E-003
  0.224138E+000  0.000000E+000  0.120690E+000  0.266493E-005  0.000000E+000 -0.656176E-003
  0.258621E+000  0.000000E+000  0.120690E+000  0.267497E-005  0.000000E+000 -0.654306E-003
  0.293103E+000  0.000000E+000  0.120690E+000  0.254464E-005  0.000000E+000 -0.652476E-003
  0.327586E+000  0.000000E+000  0.120690E+000  0.227638E-005  0.000000E+000 -0.650785E-003
  0.362069E+000  0.000000E+000  0.120690E+000  0.188021E-005  0.000000E+000 -0.649325E-003
  0.396552E+000  0.000000E+000  0.120690E+000  0.137373E-005  0.000000E+000 -0.648180E-003
  0.431034E+000  0.000000E+000  0.120690E+000  0.781513E-006  0.000000E+000 -0.647422E-003
  0.465517E+000  0.000000E+000  0.120690E+000  0.133804E-006  0.000000E+000 -0.647099E-003
  0.500000E+000  0.000000E+000  0.120690E+000 -0.535340E-006  0.000000E+000 -0.647240E-003
  0.534483E+000  0.000000E+000  0.120690E+000 -0.119042E-005  0.000000E+000 -0.647846E-003
  0.568966E+000  0.000000E+000  0.120690E+000 -0.179712E-005  0.000000E+000 -0.648896E-003
  0.603448E+000  0.000000E+000  0.120690E+000 -0.232463E-005  0.000000E+000 -0.650343E-003
  0.637931E+000  0.000000E+000  0.120690E+000 -0.274752E-005  0.000000E+000 -0.652122E-003
  0.672414E+000  0.000000E+000  0.120690E+000 -0.304701E-005  0.000000E+000 -0.654152E-003
  0.706897E+000  0.000000E+000  0.120690E+000 -0.321157E-005  0.000000E+000 -0.656343E-003
  0.741379E+000  0.000000E+000  0.120690E+000 -0.323685E-005  0.000000E+000 -0.658597E-003
  0.775862E+000  0.000000E+000  0.120690E+000 -0.312523E-005  0.000000E+000 -0.660820E-003
  0.810345E+000  0.000000E+000  0.120690E+000 -0.288492E-005  0.000000E+000 -0.662918E-003
  0.844828E+000  0.000000E+000  0.120690E+000 -0.252891E-005  0.000000E+000 -0.664806E-003
  0.879310E+000  0.000000E+000  0.120690E+000 -0.207397E-005  0.000000E+000 -0.666411E-003
  0.913793E+000  0.000000E+000  0.120690E+000 -0.153961E-005  0.000000E+000 -0.667670E-003
  0.948276E+000  0.000000E+000  0.120690E+000 -0.947291E-006  0.000000E+000 -0.668537E-003
  0.991379E+000  0.000000E+000  0.120690E+000 -0.319710E-006  0.000000E+000 -0.668979E-003
  0.172414E-001  0.000000E+000  0.155172E+000  0.453705E-006  0.000000E+000 -0.639899E-003
  0.517241E-001  0.000000E+000  0.155172E+000  0.134041E-005  0.000000E+000 -0.639445E-003
  0.862069E-001  0.000000E+000  0.155172E+000  0.216563E-005  0.000000E+000 -0.638557E-003
  0.120690E+000  0.000000E+000  0.155172E+000  0.289041E-005  0.000000E+000 -0.637276E-003
  0.155172E+000  0.000000E+000  0.155172E+000  0.347891E-005  0.000000E+000 -0.635661E-003
  0.189655E+000  0.000000E+000  0.155172E+000  0.389982E-005  0.000000E+000 -0.633786E-003
  0.224138E+000  0.000000E+000  0.155172E+000  0.412801E-005  0.000000E+000 -0.631744E-003
  0.258621E+000  0.000000E+000  0.155172E+000  0.414626E-005  0.000000E+000 -0.629634E-003
  0.293103E+000  0.000000E+000  0.155172E+000  0.394690E-005  0.000000E+000 -0.627566E-003
  0.327586E+000  0.000000E+000  0.155172E+000  0.353320E-005  0.000000E+000 -0.625650E-003
  0.362069E+000  0.000000E+000  0.155172E+000  0.292032E-005  0.000000E+000 -0.623993E-003
  0.396552E+000  0.000000E+000  0.155172E+000  0.213535E-005  0.000000E+000 -0.622690E-003
  0.431034E+000  0.000000E+000  0.155172E+000  0.121643E-005  0.000000E+000 -0.621824E-003
  0.465517E+000  0.000000E+000  0.155172E+000  0.210789E-006  0.000000E+000 -0.621450E-003
  0.500000E+000  0.000000E+000  0.155172E+000 -0.828283E-006  0.000000E+000 -0.621602E-003
  0.534483E+000  0.000000E+000  0.155172E+000 -0.184517E-005  0.000000E+000 -0.622283E-003
  0.568966E+000  0.000000E+000  0.155172E+000 -0.278618E-005  0.000000E+000 -0.623464E-003
  0.603448E+000  0.000000E+000  0.155172E+000 -0.360325E-005  0.000000E+000 -0.625093E-003
  0.637931E+000  0.000000E+000  0.155172E+000 -0.425694E-005  0.000000E+000 -0.627096E-003
  0.672414E+000  0.000000E+000  0.155172E+000 -0.471836E-005  0.000000E+000 -0.629378E-003
  0.706897E+000  0.000000E+000  0.155172E+000 -0.497008E-005  0.000000E+000 -0.631837E-003
  0.741379E+000  0.000000E+000  0.155172E+000 -0.500595E-005  0.000000E+000 -0.634363E-003
  0.775862E+000  0.000000E+000  0.155172E+000 -0.483022E-005  0.000000E+000 -0.636849E-003
  0.810345E+000  0.000000E+000  0.155172E+000 -0.445610E-005  0.000000E+000 -0.639191E-003
  0.844828E+000  0.000000E+000  0.155172E+000 -0.390409E-005  0.000000E+000 -0.641297E-003
  0.879310E+000  0.000000E+000  0.155172E+000 -0.320029E-005  0.000000E+000 -0.643084E-003
  0.913793E+000  0.000000E+000  0.155172E+000 -0.237488E-005  0.000000E+000 -0.644484E-003
  0.948276E+000  0.000000E+000  0.155172E+000 -0.146086E-005  0.000000E+000 -0.645448E-003
  0.991379E+000  0.000000E+000  0.155172E+000 -0.492976E-006  0.000000E+000 -0.645938E-003
  0.172414E-001  0.000000E+000  0.189655E+000  0.645647E-006  0.000000E+000 -0.613986E-003
  0.517241E-001  0.000000E+000  0.189655E+000  0.190785E-005  0.000000E+000 -0.613466E-003
  0.862069E-001  0.000000E+000  0.189655E+000  0.308360E-005  0.000000E+000 -0.612450E-003
  0.120690E+000  0.000000E+000  0.189655E+000  0.411793E-005  0.000000E+000 -0.610981E-003
  0.155172E+000  0.000000E+000  0.189655E+000  0.495993E-005  0.000000E+000 -0.609126E-003
  0.189655E+000  0.000000E+000  0.189655E+000  0.556479E-005  0.000000E+000 -0.606970E-003
  0.224138E+000  0.000000E+000  0.189655E+000  0.589610E-005  0.000000E+000 -0.604615E-003
  0.258621E+000  0.000000E+000  0.189655E+000  0.592834E-005  0.000000E+000 -0.602177E-003
  0.293103E+000  0.000000E+000  0.189655E+000  0.564947E-005  0.000000E+000 -0.599780E-003
  0.327586E+000  0.000000E+000  0.189655E+000  0.506310E-005  0.000000E+000 -0.597554E-003
  0.362069E+000  0.000000E+000  0.189655E+000  0.418998E-005  0.000000E+000 -0.595621E-003
  0.396552E+000  0.000000E+000  0.189655E+000  0.306843E-005  0.000000E+000 -0.594098E-003
  0.431034E+000  0.000000E+000  0.189655E+000  0.175309E-005  0.000000E+000 -0.593077E-003
  0.465517E+000  0.000000E+000  0.189655E+000  0.312163E-006  0.000000E+000 -0.592630E-003
  0.500000E+000  0.000000E+000  0.189655E+000 -0.117702E-005  0.000000E+000 -0.592794E-003
  0.534483E+000  0.000000E+000  0.189655E+000 -0.263365E-005  0.000000E+000 -0.593571E-003
  0.568966E+000  0.000000E+000  0.189655E+000 -0.397989E-005  0.000000E+000 -0.594930E-003
  0.603448E+000  0.000000E+000  0.189655E+000 -0.514637E-005  0.000000E+000 -0.596806E-003
  0.637931E+000  0.000000E+000  0.189655E+000 -0.607666E-005  0.000000E+000 -0.599111E-003
  0.672414E+000  0.000000E+000  0.189655E+000 -0.673004E-005  0.000000E+000 -0.601733E-003
  0.706897E+000  0.000000E+000  0.189655E+000 -0.708257E-005  0.000000E+000 -0.604553E-003
  0.741379E+000  0.000000E+000  0.189655E+000 -0.712674E-005  0.000000E+000 -0.607443E-003
  0.775862E+000  0.000000E+000  0.189655E+000 -0.686989E-005  0.000000E+000 -0.610281E-003
  0.810345E+000  0.000000E+000  0.189655E+000 -0.633197E-005  0.000000E+000 -0.612949E-003
  0.844828E+000  0.000000E+000  0.189655E+000 -0.554302E-005  0.000000E+000 -0.615342E-003
  0.879310E+000  0.000000E+000  0.189655E+000 -0.454060E-005  0.000000E+000 -0.617369E-003
  0.913793E+000  0.000000E+000  0.189655E+000 -0.336768E-005  0.000000E+000 -0.618956E-003
  0.948276E+000  0.000000E+000  0.189655E+000 -0.207078E-005  0.000000E+000 -0.620046E-003
  0.991379E+000  0.000000E+000  0.189655E+000 -0.698665E-006  0.000000E+000 -0.620601E-003
  0.172414E-001  0.000000E+000  0.224138E+000  0.874859E-006  0.000000E+000 -0.586191E-003
  0.517241E-001  0.000000E+000  0.224138E+000  0.258586E-005  0.000000E+000 -0.585586E-003
  0.862069E-001  0.000000E+000  0.224138E+000  0.418170E-005  0.000000E+000 -0.584403E-003
  0.120690E+000  0.000000E+000  0.224138E+000  0.558875E-005  0.000000E+000 -0.582691E-003
  0.155172E+000  0.000000E+000  0.224138E+000  0.673830E-005  0.000000E+000 -0.580525E-003
  0.189655E+000  0.000000E+000  0.224138E+000  0.756915E-005  0.000000E+000 -0.578000E-003
  0.224138E+000  0.000000E+000  0.224138E+000  0.803071E-005  0.000000E+000 -0.575235E-003
  0.258621E+000  0.000000E+000  0.224138E+000  0.808658E-005  0.000000E+000 -0.572363E-003
  0.293103E+000  0.000000E+000  0.224138E+000  0.771826E-005  0.000000E+000 -0.569530E-003
  0.327586E+000  0.000000E+000  0.224138E+000  0.692857E-005  0.000000E+000 -0.566888E-003
  0.362069E+000  0.000000E+000  0.224138E+000  0.574414E-005  0.000000E+000 -0.564586E-003
  0.396552E+000  0.000000E+000  0.224138E+000  0.421628E-005  0.000000E+000 -0.562763E-003
  0.431034E+000  0.000000E+000  0.224138E+000  0.241975E-005  0.000000E+000 -0.561533E-003
  0.465517E+000  0.000000E+000  0.224138E+000  0.448853E-006  0.000000E+000 -0.560983E-003
  0.500000E+000  0.000000E+000  0.224138E+000 -0.158878E-005  0.000000E+000 -0.561158E-003
  0.534483E+000  0.000000E+000  0.224138E+000 -0.358048E-005  0.000000E+000 -0.562061E-003
  0.568966E+000  0.000000E+000  0.224138E+000 -0.541795E-005  0.000000E+000 -0.563653E-003
  0.603448E+000  0.000000E+000  0.224138E+000 -0.700544E-005  0.000000E+000 -0.565854E-003
  0.637931E+000  0.000000E+000  0.224138E+000 -0.826593E-005  0.000000E+000 -0.568555E-003
  0.672414E+000  0.000000E+000  0.224138E+000 -0.914498E-005  0.000000E+000 -0.571623E-003
  0.706897E+000  0.000000E+000  0.224138E+000 -0.961192E-005  0.000000E+000 -0.574913E-003
  0.741379E+000  0.000000E+000  0.224138E+000 -0.965890E-005  0.000000E+000 -0.578276E-003
  0.775862E+000  0.000000E+000  0.224138E+000 -0.929834E-005  0.000000E+000 -0.581568E-003
  0.810345E+000  0.000000E+000  0.224138E+000 -0.855945E-005  0.000000E+000 -0.584654E-003
  0.844828E+000  0.000000E+000  0.224138E+000 -0.748444E-005  0.000000E+000 -0.587414E-003
  0.879310E+000  0.000000E+000  0.224138E+000 -0.612505E-005  0.000000E+000 -0.589747E-003
  0.913793E+000  0.000000E+000  0.224138E+000 -0.453943E-005  0.000000E+000 -0.591569E-003
  0.948276E+000  0.000000E+000  0.224138E+000 -0.278985E-005  0.000000E+000 -0.592819E-003
  0.991379E+000  0.000000E+000  0.224138E+000 -0.941032E-006  0.000000E+000 -0.593455E-003
  0.172414E-001  0.000000E+000  0.258621E+000  0.114918E-005  0.000000E+000 -0.556890E-003
  0.517241E-001  0.000000E+000  0.258621E+000  0.339790E-005  0.000000E+000 -0.556179E-003
  0.862069E-001  0.000000E+000  0.258621E+000  0.549877E-005  0.000000E+000 -0.554785E-003
  0.120690E+000  0.000000E+000  0.258621E+000  0.735662E-005  0.000000E+000 -0.552766E-003
  0.155172E+000  0.000000E+000  0.258621E+000  0.888167E-005  0.000000E+000 -0.550204E-003
  0.189655E+000  0.000000E+000  0.258621E+000  0.999273E-005  0.000000E+000 -0.547210E-003
  0.224138E+000  0.000000E+000  0.258621E+000  0.106212E-004  0.000000E+000 -0.543919E-003
  0.258621E+000  0.000000E+000  0.258621E+000  0.107162E-004  0.000000E+000 -0.540487E-003
  0.293103E+000  0.000000E+000  0.258621E+000  0.102495E-004  0.000000E+000 -0.537087E-003
  0.327586E+000  0.000000E+000  0.258621E+000  0.922114E-005  0.000000E+000 -0.533902E-003
  0.362069E+000  0.000000E+000  0.258621E+000  0.766329E-005  0.000000E+000 -0.531115E-003
  0.396552E+000  0.000000E+000  0.258621E+000  0.564229E-005  0.000000E+000 -0.528894E-003
  0.431034E+000  0.000000E+000  0.258621E+000  0.325742E-005  0.000000E+000 -0.527385E-003
  0.465517E+000  0.000000E+000  0.258621E+000  0.635950E-006  0.000000E+000 -0.526694E-003
  0.500000E+000  0.000000E+000  0.258621E+000 -0.207567E-005  0.000000E+000 -0.526880E-003
  0.534483E+000  0.000000E+000  0.258621E+000 -0.472370E-005  0.000000E+000 -0.527945E-003
  0.568966E+000  0.000000E+000  0.258621E+000 -0.716090E-005  0.000000E+000 -0.529839E-003
  0.603448E+000  0.000000E+000  0.258621E+000 -0.925830E-005  0.000000E+000 -0.532462E-003
  0.637931E+000  0.000000E+000  0.258621E+000 -0.109139E-004  0.000000E+000 -0.535676E-003
  0.672414E+000  0.000000E+000  0.258621E+000 -0.120575E-004  0.000000E+000 -0.539317E-003
  0.706897E+000  0.000000E+000  0.258621E+000 -0.126521E-004  0.000000E+000 -0.543208E-003
  0.741379E+000  0.000000E+000  0.258621E+000 -0.126914E-004  0.000000E+000 -0.547172E-003
  0.775862E+000  0.000000E+000  0.258621E+000 -0.121962E-004  0.000000E+000 -0.551036E-003
  0.810345E+000  0.000000E+000  0.258621E+000 -0.112083E-004  0.000000E+000 -0.554646E-003
  0.844828E+000  0.000000E+000  0.258621E+000 -0.978608E-005  0.000000E+000 -0.557864E-003
  0.879310E+000  0.000000E+000  0.258621E+000 -0.799858E-005  0.000000E+000 -0.560576E-003
  0.913793E+000  0.000000E+000  0.258621E+000 -0.592214E-005  0.000000E+000 -0.562689E-003
  0.948276E+000  0.000000E+000  0.258621E+000 -0.363721E-005  0.000000E+000 -0.564137E-003
  0.991379E+000  0.000000E+000  0.258621E+000 -0.122643E-005  0.000000E+000 -0.564872E-003
  0.172414E-001  0.000000E+000  0.293103E+000  0.147838E-005  0.000000E+000 -0.526400E-003
  0.517241E-001  0.000000E+000  0.293103E+000  0.437326E-005  0.000000E+000 -0.525558E-003
  0.862069E-001  0.000000E+000  0.293103E+000  0.708358E-005  0.000000E+000 -0.523906E-003
  0.120690E+000  0.000000E+000  0.293103E+000  0.948945E-005  0.000000E+000 -0.521505E-003
  0.155172E+000  0.000000E+000  0.293103E+000  0.114762E-004  0.000000E+000 -0.518451E-003
  0.189655E+000  0.000000E+000  0.293103E+000  0.129383E-004  0.000000E+000 -0.514869E-003
  0.224138E+000  0.000000E+000  0.293103E+000  0.137839E-004  0.000000E+000 -0.510913E-003
  0.258621E+000  0.000000E+000  0.293103E+000  0.139424E-004  0.000000E+000 -0.506769E-003
  0.293103E+000  0.000000E+000  0.293103E+000  0.133710E-004  0.000000E+000 -0.502643E-003
  0.327586E+000  0.000000E+000  0.293103E+000  0.120634E-004  0.000000E+000 -0.498757E-003
  0.362069E+000  0.000000E+000  0.293103E+000  0.100562E-004  0.000000E+000 -0.495337E-003
  0.396552E+000  0.000000E+000  0.293103E+000  0.743248E-005  0.000000E+000 -0.492595E-003
  0.431034E+000  0.000000E+000  0.293103E+000  0.432181E-005  0.000000E+000 -0.490716E-003
  0.465517E+000  0.000000E+000  0.293103E+000  0.893579E-006  0.000000E+000 -0.489837E-003
  0.500000E+000  0.000000E+000  0.293103E+000 -0.265502E-005  0.000000E+000 -0.490032E-003
  0.534483E+000  0.000000E+000  0.293103E+000 -0.611624E-005  0.000000E+000 -0.491306E-003
  0.568966E+000  0.000000E+000  0.293103E+000 -0.929205E-005  0.000000E+000 -0.493591E-003
  0.603448E+000  0.000000E+000  0.293103E+000 -0.120111E-004  0.000000E+000 -0.496757E-003
  0.637931E+000  0.000000E+000  0.293103E+000 -0.141409E-004  0.000000E+000 -0.500629E-003
  0.672414E+000  0.000000E+000  0.293103E+000 -0.155936E-004  0.000000E+000 -0.505001E-003
  0.706897E+000  0.000000E+000  0.293103E+000 -0.163272E-004  0.000000E+000 -0.509653E-003
  0.741379E+000  0.000000E+000  0.293103E+000 -0.163405E-004  0.000000E+000 -0.514370E-003
  0.775862E+000  0.000000E+000  0.293103E+000 -0.156673E-004  0.000000E+000 -0.518948E-003
  0.810345E+000  0.000000E+000  0.293103E+000 -0.143678E-004  0.000000E+000 -0.523204E-003
  0.844828E+000  0.000000E+000  0.293103E+000 -0.125208E-004  0.000000E+000 -0.526983E-003
  0.879310E+000  0.000000E+000  0.293103E+000 -0.102175E-004  0.000000E+000 -0.530156E-003
  0.913793E+000  0.000000E+000  0.293103E+000 -0.755562E-005  0.000000E+000 -0.532622E-003
  0.948276E+000  0.000000E+000  0.293103E+000 -0.463651E-005  0.000000E+000 -0.534308E-003
  0.991379E+000  0.000000E+000  0.293103E+000 -0.156272E-005  0.000000E+000 -0.535163E-003
  0.172414E-001  0.000000E+000  0.327586E+000  0.187393E-005  0.000000E+000 -0.495014E-003
  0.517241E-001  0.000000E+000  0.327586E+000  0.554652E-005  0.000000E+000 -0.494013E-003
  0.862069E-001  0.000000E+000  0.327586E+000  0.899410E-005  0.000000E+000 -0.492045E-003
  0.120690E+000  0.000000E+000  0.327586E+000  0.120688E-004  0.000000E+000 -0.489181E-003
  0.155172E+000  0.000000E+000  0.327586E+000  0.146269E-004  0.000000E+000 -0.485523E-003
  0.189655E+000  0.000000E+000  0.327586E+000  0.165326E-004  0.000000E+000 -0.481212E-003
  0.224138E+000  0.000000E+000  0.327586E+000  0.176645E-004  0.000000E+000 -0.476428E-003
  0.258621E+000  0.000000E+000  0.327586E+000  0.179243E-004  0.000000E+000 -0.471387E-003
  0.293103E+000  0.000000E+000  0.327586E+000  0.172478E-004  0.000000E+000 -0.466337E-003
  0.327586E+000  0.000000E+000  0.327586E+000  0.156161E-004  0.000000E+000 -0.461550E-003
  0.362069E+000  0.000000E+000  0.327586E+000  0.130669E-004  0.000000E+000 -0.457310E-003
  0.396552E+000  0.000000E+000  0.327586E+000  0.970195E-005  0.000000E+000 -0.453887E-003
  0.431034E+000  0.000000E+000  0.327586E+000  0.568777E-005  0.000000E+000 -0.451521E-003
  0.465517E+000  0.000000E+000  0.327586E+000  0.124853E-005  0.000000E+000 -0.450390E-003
  0.500000E+000  0.000000E+000  0.327586E+000 -0.335091E-005  0.000000E+000 -0.450594E-003
  0.534483E+000  0.000000E+000  0.327586E+000 -0.783020E-005  0.000000E+000 -0.452137E-003
  0.568966E+000  0.000000E+000  0.327586E+000 -0.119237E-004  0.000000E+000 -0.454929E-003
  0.603448E+000  0.000000E+000  0.327586E+000 -0.154052E-004  0.000000E+000 -0.458796E-003
  0.637931E+000  0.000000E+000  0.327586E+000 -0.181049E-004  0.000000E+000 -0.463512E-003
  0.672414E+000  0.000000E+000  0.327586E+000 -0.199162E-004  0.000000E+000 -0.468811E-003
  0.706897E+000  0.000000E+000  0.327586E+000 -0.207949E-004  0.000000E+000 -0.474421E-003
  0.741379E+000  0.000000E+000  0.327586E+000 -0.207513E-004  0.000000E+000 -0.480075E-003
  0.775862E+000  0.000000E+000  0.327586E+000 -0.198395E-004  0.000000E+000 -0.485531E-003
  0.810345E+000  0.000000E+000  0.327586E+000 -0.181453E-004  0.000000E+000 -0.490576E-003
  0.844828E+000  0.000000E+000  0.327586E+000 -0.157753E-004  0.000000E+000 -0.495033E-003
  0.879310E+000  0.000000E+000  0.327586E+000 -0.128477E-004  0.000000E+000 -0.498759E-003
  0.913793E+000  0.000000E+000  0.327586E+000 -0.948596E-005  0.000000E+000 -0.501645E-003
  0.948276E+000  0.000000E+000  0.327586E+000 -0.581495E-005  0.000000E+000 -0.503612E-003
  0.991379E+000  0.000000E+000  0.327586E+000 -0.195886E-005  0.000000E+000 -0.504609E-003
  0.172414E-001  0.000000E+000  0.362069E+000  0.234881E-005  0.000000E+000 -0.463015E-003
  0.517241E-001  0.000000E+000  0.362069E+000  0.695695E-005  0.000000E+000 -0.461825E-003
  0.862069E-001  0.000000E+000  0.362069E+000  0.112969E-004  0.000000E+000 -0.459482E-003
  0.120690E+000  0.000000E+000  0.362069E+000  0.151897E-004  0.000000E+000 -0.456059E-003
  0.155172E+000  0.000000E+000  0.362069E+000  0.184579E-004  0.000000E+000 -0.451669E-003
  0.189655E+000  0.000000E+000  0.362069E+000  0.209289E-004  0.000000E+000 -0.446468E-003
  0.224138E+000  0.000000E+000  0.362069E+000  0.224426E-004  0.000000E+000 -0.440660E-003
  0.258621E+000  0.000000E+000  0.362069E+000  0.228628E-004  0.000000E+000 -0.434497E-003
  0.293103E+000  0.000000E+000  0.362069E+000  0.220921E-004  0.000000E+000 -0.428277E-003
  0.327586E+000  0.000000E+000  0.362069E+000  0.200893E-004  0.000000E+000 -0.422336E-003
  0.362069E+000  0.000000E+000  0.362069E+000  0.168872E-004  0.000000E+000 -0.417032E-003
  0.396552E+000  0.000000E+000  0.362069E+000  0.126056E-004  0.000000E+000 -0.412718E-003
  0.431034E+000  0.000000E+000  0.362069E+000  0.745675E-005  0.000000E+000 -0.409706E-003
  0.465517E+000  0.000000E+000  0.362069E+000  0.173687E-005  0.000000E+000 -0.408239E-003
  0.500000E+000  0.000000E+000  0.362069E+000 -0.419697E-005  0.000000E+000 -0.408452E-003
  0.534483E+000  0.000000E+000  0.362069E+000 -0.996439E-005  0.000000E+000 -0.410347E-003
  0.568966E+000  0.000000E+000  0.362069E+000 -0.152078E-004  0.000000E+000 -0.413799E-003
  0.603448E+000  0.000000E+000  0.362069E+000 -0.196291E-004  0.000000E+000 -0.418577E-003
  0.637931E+000  0.000000E+000  0.362069E+000 -0.230130E-004  0.000000E+000 -0.424375E-003
  0.672414E+000  0.000000E+000  0.362069E+000 -0.252344E-004  0.000000E+000 -0.430853E-003
  0.706897E+000  0.000000E+000  0.362069E+000 -0.262534E-004  0.000000E+000 -0.437662E-003
  0.741379E+000  0.000000E+000  0.362069E+000 -0.261019E-004  0.000000E+000 -0.444477E-003
  0.775862E+000  0.000000E+000  0.362069E+000 -0.248658E-004  0.000000E+000 -0.451005E-003
  0.810345E+000  0.000000E+000  0.362069E+000 -0.226671E-004  0.000000E+000 -0.457002E-003
  0.844828E+000  0.000000E+000  0.362069E+000 -0.196488E-004  0.000000E+000 -0.462268E-003
  0.879310E+000  0.000000E+000  0.362069E+000 -0.159633E-004  0.000000E+000 -0.466647E-003
  0.913793E+000  0.000000E+000  0.362069E+000 -0.117641E-004  0.000000E+000 -0.470026E-003
  0.948276E+000  0.000000E+000  0.362069E+000 -0.720222E-005  0.000000E+000 -0.472321E-003
  0.991379E+000  0.000000E+000  0.362069E+000 -0.242462E-005  0.000000E+000 -0.473482E-003
  0.172414E-001  0.000000E+000  0.396552E+000  0.291711E-005  0.000000E+000 -0.430696E-003
  0.517241E-001  0.000000E+000  0.396552E+000  0.864756E-005  0.000000E+000 -0.429285E-003
  0.862069E-001  0.000000E+000  0.396552E+000  0.140658E-004  0.000000E+000 -0.426501E-003
  0.120690E+000  0.000000E+000  0.396552E+000  0.189598E-004  0.000000E+000 -0.422417E-003
  0.155172E+000  0.000000E+000  0.396552E+000  0.231136E-004  0.000000E+000 -0.417153E-003
  0.189655E+000  0.000000E+000  0.396552E+000  0.263098E-004  0.000000E+000 -0.410876E-003
  0.224138E+000  0.000000E+000  0.396552E+000  0.283382E-004  0.000000E+000 -0.403812E-003
  0.258621E+000  0.000000E+000  0.396552E+000  0.290097E-004  0.000000E+000 -0.396252E-003