title = "dataset transp-updrld"
variables = "x", "y", "z", "h_w", "p_w", "s_w", "theta_a", "s_a", "theta_g", "q_root"
zone t = "Flow variables, solution time =  2.000E+01 days        " i =   30, j =   30, k =    1,  f=point
  0.000000E+000  0.000000E+000  0.000000E+000 -0.100000E+003 -0.100000E+003  0.214462E+000  0.115809E+000  0.785538E+000  0.424191E+000  0.000000E+000
  0.344828E-001  0.000000E+000  0.000000E+000 -0.100000E+003 -0.100000E+003  0.214462E+000  0.115809E+000  0.785538E+000  0.424191E+000  0.000000E+000
  0.689655E-001  0.000000E+000  0.000000E+000 -0.100000E+003 -0.100000E+003  0.214462E+000  0.115809E+000  0.785538E+000  0.424191E+000  0.000000E+000
  0.103448E+000  0.000000E+000  0.000000E+000 -0.100000E+003 -0.100000E+003  0.214462E+000  0.115809E+000  0.785538E+000  0.424191E+000  0.000000E+000
  0.137931E+000  0.000000E+000  0.000000E+000 -0.100000E+003 -0.100000E+003  0.214462E+000  0.115809E+000  0.785538E+000  0.424191E+000  0.000000E+000
  0.172414E+000  0.000000E+000  0.000000E+000 -0.100000E+003 -0.100000E+003  0.214462E+000  0.115809E+000  0.785538E+000  0.424191E+000  0.000000E+000
  0.206897E+000  0.000000E+000  0.000000E+000 -0.100000E+003 -0.100000E+003  0.214462E+000  0.115809E+000  0.785538E+000  0.424191E+000  0.000000E+000
  0.241379E+000  0.000000E+000  0.000000E+000 -0.100000E+003 -0.100000E+003  0.214462E+000  0.115809E+000  0.785538E+000  0.424191E+000  0.000000E+000
  0.275862E+000  0.000000E+000  0.000000E+000 -0.100000E+003 -0.100000E+003  0.214462E+000  0.115809E+000  0.785538E+000  0.424191E+000  0.000000E+000
  0.310345E+000  0.000000E+000  0.000000E+000 -0.100000E+003 -0.100000E+003  0.214462E+000  0.115809E+000  0.785538E+000  0.424191E+000  0.000000E+000
  0.344828E+000  0.000000E+000  0.000000E+000 -0.100000E+003 -0.100000E+003  0.214462E+000  0.115809E+000  0.785538E+000  0.424191E+000  0.000000E+000
  0.379310E+000  0.000000E+000  0.000000E+000 -0.100000E+003 -0.100000E+003  0.214462E+000  0.115809E+000  0.785538E+000  0.424191E+000  0.000000E+000
  0.413793E+000  0.000000E+000  0.000000E+000 -0.100000E+003 -0.100000E+003  0.214462E+000  0.115809E+000  0.785538E+000  0.424191E+000  0.000000E+000
  0.448276E+000  0.000000E+000  0.000000E+000 -0.100000E+003 -0.100000E+003  0.214462E+000  0.115809E+000  0.785538E+000  0.424191E+000  0.000000E+000
  0.482759E+000  0.000000E+000  0.000000E+000 -0.100000E+003 -0.100000E+003  0.214462E+000  0.115809E+000  0.785538E+000  0.424191E+000  0.000000E+000
  0.517241E+000  0.000000E+000  0.000000E+000 -0.100000E+003 -0.100000E+003  0.214462E+000  0.115809E+000  0.785538E+000  0.424191E+000  0.000000E+000
  0.551724E+000  0.000000E+000  0.000000E+000 -0.100000E+003 -0.100000E+003  0.214462E+000  0.115809E+000  0.785538E+000  0.424191E+000  0.000000E+000
  0.586207E+000  0.000000E+000  0.000000E+000 -0.100000E+003 -0.100000E+003  0.214462E+000  0.115809E+000  0.785538E+000  0.424191E+000  0.000000E+000
  0.620690E+000  0.000000E+000  0.000000E+000 -0.100000E+003 -0.100000E+003  0.214462E+000  0.115809E+000  0.785538E+000  0.424191E+000  0.000000E+000
  0.655172E+000  0.000000E+000  0.000000E+000 -0.100000E+003 -0.100000E+003  0.214462E+000  0.115809E+000  0.785538E+000  0.424191E+000  0.000000E+000
  0.689655E+000  0.000000E+000  0.000000E+000 -0.100000E+003 -0.100000E+003  0.214462E+000  0.115809E+000  0.785538E+000  0.424191E+000  0.000000E+000
  0.724138E+000  0.000000E+000  0.000000E+000 -0.100000E+003 -0.100000E+003  0.214462E+000  0.115809E+000  0.785538E+000  0.424191E+000  0.000000E+000
  0.758621E+000  0.000000E+000  0.000000E+000 -0.100000E+003 -0.100000E+003  0.214462E+000  0.115809E+000  0.785538E+000  0.424191E+000  0.000000E+000
  0.793103E+000  0.000000E+000  0.000000E+000 -0.100000E+003 -0.100000E+003  0.214462E+000  0.115809E+000  0.785538E+000  0.424191E+000  0.000000E+000
  0.827586E+000  0.000000E+000  0.000000E+000 -0.100000E+003 -0.100000E+003  0.214462E+000  0.115809E+000  0.785538E+000  0.424191E+000  0.000000E+000
  0.862069E+000  0.000000E+000  0.000000E+000 -0.100000E+003 -0.100000E+003  0.214462E+000  0.115809E+000  0.785538E+000  0.424191E+000  0.000000E+000
  0.896552E+000  0.000000E+000  0.000000E+000 -0.100000E+003 -0.100000E+003  0.214462E+000  0.115809E+000  0.785538E+000  0.424191E+000  0.000000E+000
  0.931034E+000  0.000000E+000  0.000000E+000 -0.100000E+003 -0.100000E+003  0.214462E+000  0.115809E+000  0.785538E+000  0.424191E+000  0.000000E+000
  0.965517E+000  0.000000E+000  0.000000E+000 -0.100000E+003 -0.100000E+003  0.214462E+000  0.115809E+000  0.785538E+000  0.424191E+000  0.000000E+000
  0.100000E+001  0.000000E+000  0.000000E+000 -0.100000E+003 -0.100000E+003  0.214462E+000  0.115809E+000  0.785538E+000  0.424191E+000  0.000000E+000
  0.000000E+000  0.000000E+000  0.344828E-001 -0.396760E+002 -0.397105E+002  0.258027E+000  0.139335E+000  0.741973E+000  0.400665E+000  0.000000E+000
  0.344828E-001  0.000000E+000  0.344828E-001 -0.396784E+002 -0.397129E+002  0.258024E+000  0.139333E+000  0.741976E+000  0.400667E+000  0.000000E+000
  0.689655E-001  0.000000E+000  0.344828E-001 -0.396855E+002 -0.397200E+002  0.258013E+000  0.139327E+000  0.741987E+000  0.400673E+000  0.000000E+000
  0.103448E+000  0.000000E+000  0.344828E-001 -0.396969E+002 -0.397314E+002  0.257996E+000  0.139318E+000  0.742004E+000  0.400682E+000  0.000000E+000
  0.137931E+000  0.000000E+000  0.344828E-001 -0.397121E+002 -0.397466E+002  0.257972E+000  0.139305E+000  0.742028E+000  0.400695E+000  0.000000E+000
  0.172414E+000  0.000000E+000  0.344828E-001 -0.397305E+002 -0.397650E+002  0.257945E+000  0.139290E+000  0.742055E+000  0.400710E+000  0.000000E+000
  0.206897E+000  0.000000E+000  0.344828E-001 -0.397511E+002 -0.397856E+002  0.257913E+000  0.139273E+000  0.742087E+000  0.400727E+000  0.000000E+000
  0.241379E+000  0.000000E+000  0.344828E-001 -0.397729E+002 -0.398074E+002  0.257880E+000  0.139255E+000  0.742120E+000  0.400745E+000  0.000000E+000
  0.275862E+000  0.000000E+000  0.344828E-001 -0.397949E+002 -0.398293E+002  0.257847E+000  0.139237E+000  0.742153E+000  0.400763E+000  0.000000E+000
  0.310345E+000  0.000000E+000  0.344828E-001 -0.398158E+002 -0.398502E+002  0.257816E+000  0.139220E+000  0.742184E+000  0.400780E+000  0.000000E+000
  0.344828E+000  0.000000E+000  0.344828E-001 -0.398345E+002 -0.398690E+002  0.257787E+000  0.139205E+000  0.742213E+000  0.400795E+000  0.000000E+000
  0.379310E+000  0.000000E+000  0.344828E-001 -0.398500E+002 -0.398845E+002  0.257764E+000  0.139192E+000  0.742236E+000  0.400808E+000  0.000000E+000
  0.413793E+000  0.000000E+000  0.344828E-001 -0.398614E+002 -0.398959E+002  0.257747E+000  0.139183E+000  0.742253E+000  0.400817E+000  0.000000E+000
  0.448276E+000  0.000000E+000  0.344828E-001 -0.398679E+002 -0.399024E+002  0.257737E+000  0.139178E+000  0.742263E+000  0.400822E+000  0.000000E+000
  0.482759E+000  0.000000E+000  0.344828E-001 -0.398690E+002 -0.399035E+002  0.257735E+000  0.139177E+000  0.742265E+000  0.400823E+000  0.000000E+000
  0.517241E+000  0.000000E+000  0.344828E-001 -0.398646E+002 -0.398991E+002  0.257742E+000  0.139181E+000  0.742258E+000  0.400819E+000  0.000000E+000
  0.551724E+000  0.000000E+000  0.344828E-001 -0.398548E+002 -0.398893E+002  0.257757E+000  0.139189E+000  0.742243E+000  0.400811E+000  0.000000E+000
  0.586207E+000  0.000000E+000  0.344828E-001 -0.398401E+002 -0.398745E+002  0.257779E+000  0.139201E+000  0.742221E+000  0.400799E+000  0.000000E+000
  0.620690E+000  0.000000E+000  0.344828E-001 -0.398210E+002 -0.398554E+002  0.257808E+000  0.139216E+000  0.742192E+000  0.400784E+000  0.000000E+000
  0.655172E+000  0.000000E+000  0.344828E-001 -0.397984E+002 -0.398329E+002  0.257842E+000  0.139235E+000  0.742158E+000  0.400765E+000  0.000000E+000
  0.689655E+000  0.000000E+000  0.344828E-001 -0.397735E+002 -0.398080E+002  0.257879E+000  0.139255E+000  0.742121E+000  0.400745E+000  0.000000E+000
  0.724138E+000  0.000000E+000  0.344828E-001 -0.397473E+002 -0.397817E+002  0.257919E+000  0.139276E+000  0.742081E+000  0.400724E+000  0.000000E+000
  0.758621E+000  0.000000E+000  0.344828E-001 -0.397209E+002 -0.397554E+002  0.257959E+000  0.139298E+000  0.742041E+000  0.400702E+000  0.000000E+000
  0.793103E+000  0.000000E+000  0.344828E-001 -0.396955E+002 -0.397299E+002  0.257998E+000  0.139319E+000  0.742002E+000  0.400681E+000  0.000000E+000
  0.827586E+000  0.000000E+000  0.344828E-001 -0.396720E+002 -0.397065E+002  0.258033E+000  0.139338E+000  0.741967E+000  0.400662E+000  0.000000E+000
  0.862069E+000  0.000000E+000  0.344828E-001 -0.396515E+002 -0.396860E+002  0.258064E+000  0.139355E+000  0.741936E+000  0.400645E+000  0.000000E+000
  0.896552E+000  0.000000E+000  0.344828E-001 -0.396348E+002 -0.396692E+002  0.258090E+000  0.139369E+000  0.741910E+000  0.400631E+000  0.000000E+000
  0.931034E+000  0.000000E+000  0.344828E-001 -0.396223E+002 -0.396568E+002  0.258109E+000  0.139379E+000  0.741891E+000  0.400621E+000  0.000000E+000
  0.965517E+000  0.000000E+000  0.344828E-001 -0.396147E+002 -0.396491E+002  0.258121E+000  0.139385E+000  0.741879E+000  0.400615E+000  0.000000E+000
  0.100000E+001  0.000000E+000  0.344828E-001 -0.396121E+002 -0.396466E+002  0.258124E+000  0.139387E+000  0.741876E+000  0.400613E+000  0.000000E+000
  0.000000E+000  0.000000E+000  0.689655E-001 -0.257833E+002 -0.258523E+002  0.287229E+000  0.155104E+000  0.712771E+000  0.384896E+000  0.000000E+000
  0.344828E-001  0.000000E+000  0.689655E-001 -0.257854E+002 -0.258544E+002  0.287223E+000  0.155100E+000  0.712777E+000  0.384900E+000  0.000000E+000
  0.689655E-001  0.000000E+000  0.689655E-001 -0.257916E+002 -0.258606E+002  0.287205E+000  0.155091E+000  0.712795E+000  0.384909E+000  0.000000E+000
  0.103448E+000  0.000000E+000  0.689655E-001 -0.258016E+002 -0.258706E+002  0.287175E+000  0.155075E+000  0.712825E+000  0.384925E+000  0.000000E+000
  0.137931E+000  0.000000E+000  0.689655E-001 -0.258150E+002 -0.258840E+002  0.287136E+000  0.155053E+000  0.712864E+000  0.384947E+000  0.000000E+000
  0.172414E+000  0.000000E+000  0.689655E-001 -0.258311E+002 -0.259001E+002  0.287088E+000  0.155028E+000  0.712912E+000  0.384972E+000  0.000000E+000
  0.206897E+000  0.000000E+000  0.689655E-001 -0.258492E+002 -0.259182E+002  0.287035E+000  0.154999E+000  0.712965E+000  0.385001E+000  0.000000E+000
  0.241379E+000  0.000000E+000  0.689655E-001 -0.258684E+002 -0.259374E+002  0.286978E+000  0.154968E+000  0.713022E+000  0.385032E+000  0.000000E+000
  0.275862E+000  0.000000E+000  0.689655E-001 -0.258877E+002 -0.259567E+002  0.286922E+000  0.154938E+000  0.713078E+000  0.385062E+000  0.000000E+000
  0.310345E+000  0.000000E+000  0.689655E-001 -0.259061E+002 -0.259751E+002  0.286868E+000  0.154909E+000  0.713132E+000  0.385091E+000  0.000000E+000
  0.344828E+000  0.000000E+000  0.689655E-001 -0.259226E+002 -0.259916E+002  0.286819E+000  0.154882E+000  0.713181E+000  0.385118E+000  0.000000E+000
  0.379310E+000  0.000000E+000  0.689655E-001 -0.259363E+002 -0.260053E+002  0.286779E+000  0.154861E+000  0.713221E+000  0.385139E+000  0.000000E+000
  0.413793E+000  0.000000E+000  0.689655E-001 -0.259463E+002 -0.260153E+002  0.286750E+000  0.154845E+000  0.713250E+000  0.385155E+000  0.000000E+000
  0.448276E+000  0.000000E+000  0.689655E-001 -0.259520E+002 -0.260210E+002  0.286734E+000  0.154836E+000  0.713266E+000  0.385164E+000  0.000000E+000
  0.482759E+000  0.000000E+000  0.689655E-001 -0.259530E+002 -0.260219E+002  0.286731E+000  0.154835E+000  0.713269E+000  0.385165E+000  0.000000E+000
  0.517241E+000  0.000000E+000  0.689655E-001 -0.259491E+002 -0.260180E+002  0.286742E+000  0.154841E+000  0.713258E+000  0.385159E+000  0.000000E+000
  0.551724E+000  0.000000E+000  0.689655E-001 -0.259404E+002 -0.260094E+002  0.286767E+000  0.154854E+000  0.713233E+000  0.385146E+000  0.000000E+000
  0.586207E+000  0.000000E+000  0.689655E-001 -0.259274E+002 -0.259964E+002  0.286805E+000  0.154875E+000  0.713195E+000  0.385125E+000  0.000000E+000
  0.620690E+000  0.000000E+000  0.689655E-001 -0.259106E+002 -0.259795E+002  0.286855E+000  0.154902E+000  0.713145E+000  0.385098E+000  0.000000E+000
  0.655172E+000  0.000000E+000  0.689655E-001 -0.258907E+002 -0.259597E+002  0.286913E+000  0.154933E+000  0.713087E+000  0.385067E+000  0.000000E+000
  0.689655E+000  0.000000E+000  0.689655E-001 -0.258687E+002 -0.259377E+002  0.286978E+000  0.154968E+000  0.713022E+000  0.385032E+000  0.000000E+000
  0.724138E+000  0.000000E+000  0.689655E-001 -0.258456E+002 -0.259146E+002  0.287046E+000  0.155005E+000  0.712954E+000  0.384995E+000  0.000000E+000
  0.758621E+000  0.000000E+000  0.689655E-001 -0.258224E+002 -0.258914E+002  0.287114E+000  0.155041E+000  0.712886E+000  0.384959E+000  0.000000E+000
  0.793103E+000  0.000000E+000  0.689655E-001 -0.258001E+002 -0.258690E+002  0.287180E+000  0.155077E+000  0.712820E+000  0.384923E+000  0.000000E+000
  0.827586E+000  0.000000E+000  0.689655E-001 -0.257795E+002 -0.258484E+002  0.287241E+000  0.155110E+000  0.712759E+000  0.384890E+000  0.000000E+000
  0.862069E+000  0.000000E+000  0.689655E-001 -0.257615E+002 -0.258304E+002  0.287294E+000  0.155139E+000  0.712706E+000  0.384861E+000  0.000000E+000
  0.896552E+000  0.000000E+000  0.689655E-001 -0.257467E+002 -0.258157E+002  0.287338E+000  0.155162E+000  0.712662E+000  0.384838E+000  0.000000E+000
  0.931034E+000  0.000000E+000  0.689655E-001 -0.257358E+002 -0.258047E+002  0.287370E+000  0.155180E+000  0.712630E+000  0.384820E+000  0.000000E+000
  0.965517E+000  0.000000E+000  0.689655E-001 -0.257291E+002 -0.257980E+002  0.287390E+000  0.155191E+000  0.712610E+000  0.384809E+000  0.000000E+000
  0.100000E+001  0.000000E+000  0.689655E-001 -0.257268E+002 -0.257957E+002  0.287397E+000  0.155194E+000  0.712603E+000  0.384806E+000  0.000000E+000
  0.000000E+000  0.000000E+000  0.103448E+000 -0.199925E+002 -0.200960E+002  0.307848E+000  0.166238E+000  0.692152E+000  0.373762E+000  0.000000E+000
  0.344828E-001  0.000000E+000  0.103448E+000 -0.199944E+002 -0.200978E+002  0.307840E+000  0.166234E+000  0.692160E+000  0.373766E+000  0.000000E+000
  0.689655E-001  0.000000E+000  0.103448E+000 -0.199999E+002 -0.201034E+002  0.307816E+000  0.166221E+000  0.692184E+000  0.373779E+000  0.000000E+000
  0.103448E+000  0.000000E+000  0.103448E+000 -0.200089E+002 -0.201123E+002  0.307777E+000  0.166199E+000  0.692223E+000  0.373801E+000  0.000000E+000
  0.137931E+000  0.000000E+000  0.103448E+000 -0.200208E+002 -0.201242E+002  0.307725E+000  0.166171E+000  0.692275E+000  0.373829E+000  0.000000E+000
  0.172414E+000  0.000000E+000  0.103448E+000 -0.200352E+002 -0.201386E+002  0.307662E+000  0.166138E+000  0.692338E+000  0.373862E+000  0.000000E+000
  0.206897E+000  0.000000E+000  0.103448E+000 -0.200513E+002 -0.201548E+002  0.307592E+000  0.166100E+000  0.692408E+000  0.373900E+000  0.000000E+000
  0.241379E+000  0.000000E+000  0.103448E+000 -0.200685E+002 -0.201719E+002  0.307518E+000  0.166060E+000  0.692482E+000  0.373940E+000  0.000000E+000
  0.275862E+000  0.000000E+000  0.103448E+000 -0.200857E+002 -0.201892E+002  0.307443E+000  0.166019E+000  0.692557E+000  0.373981E+000  0.000000E+000
  0.310345E+000  0.000000E+000  0.103448E+000 -0.201022E+002 -0.202056E+002  0.307372E+000  0.165981E+000  0.692628E+000  0.374019E+000  0.000000E+000
  0.344828E+000  0.000000E+000  0.103448E+000 -0.201169E+002 -0.202204E+002  0.307308E+000  0.165947E+000  0.692692E+000  0.374053E+000  0.000000E+000
  0.379310E+000  0.000000E+000  0.103448E+000 -0.201291E+002 -0.202326E+002  0.307256E+000  0.165918E+000  0.692744E+000  0.374082E+000  0.000000E+000
  0.413793E+000  0.000000E+000  0.103448E+000 -0.201381E+002 -0.202415E+002  0.307217E+000  0.165897E+000  0.692783E+000  0.374103E+000  0.000000E+000
  0.448276E+000  0.000000E+000  0.103448E+000 -0.201432E+002 -0.202466E+002  0.307195E+000  0.165885E+000  0.692805E+000  0.374115E+000  0.000000E+000
  0.482759E+000  0.000000E+000  0.103448E+000 -0.201440E+002 -0.202475E+002  0.307192E+000  0.165883E+000  0.692808E+000  0.374117E+000  0.000000E+000
  0.517241E+000  0.000000E+000  0.103448E+000 -0.201405E+002 -0.202440E+002  0.307207E+000  0.165892E+000  0.692793E+000  0.374108E+000  0.000000E+000
  0.551724E+000  0.000000E+000  0.103448E+000 -0.201328E+002 -0.202362E+002  0.307240E+000  0.165910E+000  0.692760E+000  0.374090E+000  0.000000E+000
  0.586207E+000  0.000000E+000  0.103448E+000 -0.201211E+002 -0.202245E+002  0.307290E+000  0.165937E+000  0.692710E+000  0.374063E+000  0.000000E+000
  0.620690E+000  0.000000E+000  0.103448E+000 -0.201060E+002 -0.202095E+002  0.307355E+000  0.165972E+000  0.692645E+000  0.374028E+000  0.000000E+000
  0.655172E+000  0.000000E+000  0.103448E+000 -0.200883E+002 -0.201917E+002  0.307432E+000  0.166013E+000  0.692568E+000  0.373987E+000  0.000000E+000
  0.689655E+000  0.000000E+000  0.103448E+000 -0.200686E+002 -0.201721E+002  0.307517E+000  0.166059E+000  0.692483E+000  0.373941E+000  0.000000E+000
  0.724138E+000  0.000000E+000  0.103448E+000 -0.200480E+002 -0.201514E+002  0.307607E+000  0.166108E+000  0.692393E+000  0.373892E+000  0.000000E+000
  0.758621E+000  0.000000E+000  0.103448E+000 -0.200272E+002 -0.201307E+002  0.307697E+000  0.166156E+000  0.692303E+000  0.373844E+000  0.000000E+000
  0.793103E+000  0.000000E+000  0.103448E+000 -0.200073E+002 -0.201107E+002  0.307784E+000  0.166203E+000  0.692216E+000  0.373797E+000  0.000000E+000
  0.827586E+000  0.000000E+000  0.103448E+000 -0.199889E+002 -0.200924E+002  0.307864E+000  0.166246E+000  0.692136E+000  0.373754E+000  0.000000E+000
  0.862069E+000  0.000000E+000  0.103448E+000 -0.199729E+002 -0.200763E+002  0.307934E+000  0.166284E+000  0.692066E+000  0.373716E+000  0.000000E+000
  0.896552E+000  0.000000E+000  0.103448E+000 -0.199597E+002 -0.200632E+002  0.307991E+000  0.166315E+000  0.692009E+000  0.373685E+000  0.000000E+000
  0.931034E+000  0.000000E+000  0.103448E+000 -0.199500E+002 -0.200534E+002  0.308034E+000  0.166338E+000  0.691966E+000  0.373662E+000  0.000000E+000
  0.965517E+000  0.000000E+000  0.103448E+000 -0.199440E+002 -0.200474E+002  0.308060E+000  0.166352E+000  0.691940E+000  0.373648E+000  0.000000E+000
  0.100000E+001  0.000000E+000  0.103448E+000 -0.199419E+002 -0.200454E+002  0.308069E+000  0.166357E+000  0.691931E+000  0.373643E+000  0.000000E+000
  0.000000E+000  0.000000E+000  0.137931E+000 -0.168230E+002 -0.169610E+002  0.323402E+000  0.174637E+000  0.676598E+000  0.365363E+000  0.000000E+000
  0.344828E-001  0.000000E+000  0.137931E+000 -0.168248E+002 -0.169627E+002  0.323392E+000  0.174632E+000  0.676608E+000  0.365368E+000  0.000000E+000
  0.689655E-001  0.000000E+000  0.137931E+000 -0.168300E+002 -0.169679E+002  0.323363E+000  0.174616E+000  0.676637E+000  0.365384E+000  0.000000E+000
  0.103448E+000  0.000000E+000  0.137931E+000 -0.168383E+002 -0.169763E+002  0.323316E+000  0.174591E+000  0.676684E+000  0.365409E+000  0.000000E+000
  0.137931E+000  0.000000E+000  0.137931E+000 -0.168495E+002 -0.169874E+002  0.323253E+000  0.174556E+000  0.676747E+000  0.365444E+000  0.000000E+000
  0.172414E+000  0.000000E+000  0.137931E+000 -0.168630E+002 -0.170009E+002  0.323177E+000  0.174515E+000  0.676823E+000  0.365485E+000  0.000000E+000
  0.206897E+000  0.000000E+000  0.137931E+000 -0.168781E+002 -0.170160E+002  0.323091E+000  0.174469E+000  0.676909E+000  0.365531E+000  0.000000E+000
  0.241379E+000  0.000000E+000  0.137931E+000 -0.168942E+002 -0.170321E+002  0.323001E+000  0.174421E+000  0.676999E+000  0.365579E+000  0.000000E+000
  0.275862E+000  0.000000E+000  0.137931E+000 -0.169103E+002 -0.170483E+002  0.322910E+000  0.174372E+000  0.677090E+000  0.365628E+000  0.000000E+000
  0.310345E+000  0.000000E+000  0.137931E+000 -0.169258E+002 -0.170637E+002  0.322824E+000  0.174325E+000  0.677176E+000  0.365675E+000  0.000000E+000
  0.344828E+000  0.000000E+000  0.137931E+000 -0.169396E+002 -0.170776E+002  0.322746E+000  0.174283E+000  0.677254E+000  0.365717E+000  0.000000E+000
  0.379310E+000  0.000000E+000  0.137931E+000 -0.169511E+002 -0.170890E+002  0.322682E+000  0.174248E+000  0.677318E+000  0.365752E+000  0.000000E+000
  0.413793E+000  0.000000E+000  0.137931E+000 -0.169595E+002 -0.170975E+002  0.322635E+000  0.174223E+000  0.677365E+000  0.365777E+000  0.000000E+000
  0.448276E+000  0.000000E+000  0.137931E+000 -0.169643E+002 -0.171022E+002  0.322608E+000  0.174208E+000  0.677392E+000  0.365792E+000  0.000000E+000
  0.482759E+000  0.000000E+000  0.137931E+000 -0.169651E+002 -0.171031E+002  0.322604E+000  0.174206E+000  0.677396E+000  0.365794E+000  0.000000E+000
  0.517241E+000  0.000000E+000  0.137931E+000 -0.169619E+002 -0.170998E+002  0.322622E+000  0.174216E+000  0.677378E+000  0.365784E+000  0.000000E+000
  0.551724E+000  0.000000E+000  0.137931E+000 -0.169546E+002 -0.170925E+002  0.322663E+000  0.174238E+000  0.677337E+000  0.365762E+000  0.000000E+000
  0.586207E+000  0.000000E+000  0.137931E+000 -0.169436E+002 -0.170815E+002  0.322724E+000  0.174271E+000  0.677276E+000  0.365729E+000  0.000000E+000
  0.620690E+000  0.000000E+000  0.137931E+000 -0.169294E+002 -0.170674E+002  0.322803E+000  0.174314E+000  0.677197E+000  0.365686E+000  0.000000E+000
  0.655172E+000  0.000000E+000  0.137931E+000 -0.169127E+002 -0.170507E+002  0.322897E+000  0.174364E+000  0.677103E+000  0.365636E+000  0.000000E+000
  0.689655E+000  0.000000E+000  0.137931E+000 -0.168943E+002 -0.170323E+002  0.323000E+000  0.174420E+000  0.677000E+000  0.365580E+000  0.000000E+000
  0.724138E+000  0.000000E+000  0.137931E+000 -0.168750E+002 -0.170129E+002  0.323109E+000  0.174479E+000  0.676891E+000  0.365521E+000  0.000000E+000
  0.758621E+000  0.000000E+000  0.137931E+000 -0.168556E+002 -0.169935E+002  0.323219E+000  0.174538E+000  0.676781E+000  0.365462E+000  0.000000E+000
  0.793103E+000  0.000000E+000  0.137931E+000 -0.168369E+002 -0.169748E+002  0.323324E+000  0.174595E+000  0.676676E+000  0.365405E+000  0.000000E+000
  0.827586E+000  0.000000E+000  0.137931E+000 -0.168197E+002 -0.169576E+002  0.323421E+000  0.174647E+000  0.676579E+000  0.365353E+000  0.000000E+000
  0.862069E+000  0.000000E+000  0.137931E+000 -0.168047E+002 -0.169426E+002  0.323506E+000  0.174693E+000  0.676494E+000  0.365307E+000  0.000000E+000
  0.896552E+000  0.000000E+000  0.137931E+000 -0.167924E+002 -0.169303E+002  0.323576E+000  0.174731E+000  0.676424E+000  0.365269E+000  0.000000E+000
  0.931034E+000  0.000000E+000  0.137931E+000 -0.167833E+002 -0.169212E+002  0.323627E+000  0.174759E+000  0.676373E+000  0.365241E+000  0.000000E+000
  0.965517E+000  0.000000E+000  0.137931E+000 -0.167777E+002 -0.169157E+002  0.323659E+000  0.174776E+000  0.676341E+000  0.365224E+000  0.000000E+000
  0.100000E+001  0.000000E+000  0.137931E+000 -0.167758E+002 -0.169138E+002  0.323670E+000  0.174782E+000  0.676330E+000  0.365218E+000  0.000000E+000
  0.000000E+000  0.000000E+000  0.172414E+000 -0.148100E+002 -0.149824E+002  0.335705E+000  0.181281E+000  0.664295E+000  0.358719E+000  0.000000E+000
  0.344828E-001  0.000000E+000  0.172414E+000 -0.148117E+002 -0.149841E+002  0.335694E+000  0.181275E+000  0.664306E+000  0.358725E+000  0.000000E+000
  0.689655E-001  0.000000E+000  0.172414E+000 -0.148167E+002 -0.149891E+002  0.335659E+000  0.181256E+000  0.664341E+000  0.358744E+000  0.000000E+000
  0.103448E+000  0.000000E+000  0.172414E+000 -0.148249E+002 -0.149973E+002  0.335604E+000  0.181226E+000  0.664396E+000  0.358774E+000  0.000000E+000
  0.137931E+000  0.000000E+000  0.172414E+000 -0.148357E+002 -0.150082E+002  0.335529E+000  0.181186E+000  0.664471E+000  0.358814E+000  0.000000E+000
  0.172414E+000  0.000000E+000  0.172414E+000 -0.148489E+002 -0.150213E+002  0.335440E+000  0.181138E+000  0.664560E+000  0.358862E+000  0.000000E+000
  0.206897E+000  0.000000E+000  0.172414E+000 -0.148636E+002 -0.150361E+002  0.335339E+000  0.181083E+000  0.664661E+000  0.358917E+000  0.000000E+000
  0.241379E+000  0.000000E+000  0.172414E+000 -0.148793E+002 -0.150518E+002  0.335233E+000  0.181026E+000  0.664767E+000  0.358974E+000  0.000000E+000
  0.275862E+000  0.000000E+000  0.172414E+000 -0.148952E+002 -0.150676E+002  0.335125E+000  0.180968E+000  0.664875E+000  0.359032E+000  0.000000E+000
  0.310345E+000  0.000000E+000  0.172414E+000 -0.149103E+002 -0.150827E+002  0.335023E+000  0.180912E+000  0.664977E+000  0.359088E+000  0.000000E+000
  0.344828E+000  0.000000E+000  0.172414E+000 -0.149239E+002 -0.150963E+002  0.334931E+000  0.180863E+000  0.665069E+000  0.359137E+000  0.000000E+000
  0.379310E+000  0.000000E+000  0.172414E+000 -0.149351E+002 -0.151076E+002  0.334855E+000  0.180822E+000  0.665145E+000  0.359178E+000  0.000000E+000
  0.413793E+000  0.000000E+000  0.172414E+000 -0.149434E+002 -0.151158E+002  0.334799E+000  0.180791E+000  0.665201E+000  0.359209E+000  0.000000E+000
  0.448276E+000  0.000000E+000  0.172414E+000 -0.149481E+002 -0.151205E+002  0.334767E+000  0.180774E+000  0.665233E+000  0.359226E+000  0.000000E+000
  0.482759E+000  0.000000E+000  0.172414E+000 -0.149490E+002 -0.151214E+002  0.334761E+000  0.180771E+000  0.665239E+000  0.359229E+000  0.000000E+000
  0.517241E+000  0.000000E+000  0.172414E+000 -0.149458E+002 -0.151182E+002  0.334783E+000  0.180783E+000  0.665217E+000  0.359217E+000  0.000000E+000
  0.551724E+000  0.000000E+000  0.172414E+000 -0.149386E+002 -0.151110E+002  0.334831E+000  0.180809E+000  0.665169E+000  0.359191E+000  0.000000E+000
  0.586207E+000  0.000000E+000  0.172414E+000 -0.149279E+002 -0.151003E+002  0.334904E+000  0.180848E+000  0.665096E+000  0.359152E+000  0.000000E+000
  0.620690E+000  0.000000E+000  0.172414E+000 -0.149140E+002 -0.150864E+002  0.334998E+000  0.180899E+000  0.665002E+000  0.359101E+000  0.000000E+000
  0.655172E+000  0.000000E+000  0.172414E+000 -0.148977E+002 -0.150701E+002  0.335108E+000  0.180958E+000  0.664892E+000  0.359042E+000  0.000000E+000
  0.689655E+000  0.000000E+000  0.172414E+000 -0.148797E+002 -0.150521E+002  0.335230E+000  0.181024E+000  0.664770E+000  0.358976E+000  0.000000E+000
  0.724138E+000  0.000000E+000  0.172414E+000 -0.148608E+002 -0.150332E+002  0.335358E+000  0.181094E+000  0.664642E+000  0.358906E+000  0.000000E+000
  0.758621E+000  0.000000E+000  0.172414E+000 -0.148419E+002 -0.150143E+002  0.335487E+000  0.181163E+000  0.664513E+000  0.358837E+000  0.000000E+000
  0.793103E+000  0.000000E+000  0.172414E+000 -0.148237E+002 -0.149961E+002  0.335611E+000  0.181230E+000  0.664389E+000  0.358770E+000  0.000000E+000
  0.827586E+000  0.000000E+000  0.172414E+000 -0.148070E+002 -0.149794E+002  0.335726E+000  0.181292E+000  0.664274E+000  0.358708E+000  0.000000E+000
  0.862069E+000  0.000000E+000  0.172414E+000 -0.147925E+002 -0.149649E+002  0.335826E+000  0.181346E+000  0.664174E+000  0.358654E+000  0.000000E+000
  0.896552E+000  0.000000E+000  0.172414E+000 -0.147805E+002 -0.149529E+002  0.335907E+000  0.181390E+000  0.664093E+000  0.358610E+000  0.000000E+000
  0.931034E+000  0.000000E+000  0.172414E+000 -0.147717E+002 -0.149441E+002  0.335968E+000  0.181423E+000  0.664032E+000  0.358577E+000  0.000000E+000
  0.965517E+000  0.000000E+000  0.172414E+000 -0.147663E+002 -0.149387E+002  0.336005E+000  0.181443E+000  0.663995E+000  0.358557E+000  0.000000E+000
  0.100000E+001  0.000000E+000  0.172414E+000 -0.147645E+002 -0.149369E+002  0.336018E+000  0.181450E+000  0.663982E+000  0.358550E+000  0.000000E+000
  0.000000E+000  0.000000E+000  0.206897E+000 -0.134094E+002 -0.136163E+002  0.345756E+000  0.186708E+000  0.654244E+000  0.353292E+000  0.000000E+000
  0.344828E-001  0.000000E+000  0.206897E+000 -0.134111E+002 -0.136180E+002  0.345742E+000  0.186701E+000  0.654258E+000  0.353299E+000  0.000000E+000
  0.689655E-001  0.000000E+000  0.206897E+000 -0.134162E+002 -0.136231E+002  0.345702E+000  0.186679E+000  0.654298E+000  0.353321E+000  0.000000E+000
  0.103448E+000  0.000000E+000  0.206897E+000 -0.134244E+002 -0.136313E+002  0.345638E+000  0.186644E+000  0.654362E+000  0.353356E+000  0.000000E+000
  0.137931E+000  0.000000E+000  0.206897E+000 -0.134353E+002 -0.136422E+002  0.345551E+000  0.186598E+000  0.654449E+000  0.353402E+000  0.000000E+000
  0.172414E+000  0.000000E+000  0.206897E+000 -0.134486E+002 -0.136555E+002  0.345447E+000  0.186541E+000  0.654553E+000  0.353459E+000  0.000000E+000
  0.206897E+000  0.000000E+000  0.206897E+000 -0.134635E+002 -0.136704E+002  0.345329E+000  0.186478E+000  0.654671E+000  0.353522E+000  0.000000E+000
  0.241379E+000  0.000000E+000  0.206897E+000 -0.134793E+002 -0.136862E+002  0.345205E+000  0.186410E+000  0.654795E+000  0.353590E+000  0.000000E+000
  0.275862E+000  0.000000E+000  0.206897E+000 -0.134954E+002 -0.137023E+002  0.345079E+000  0.186343E+000  0.654921E+000  0.353657E+000  0.000000E+000
  0.310345E+000  0.000000E+000  0.206897E+000 -0.135107E+002 -0.137176E+002  0.344959E+000  0.186278E+000  0.655041E+000  0.353722E+000  0.000000E+000
  0.344828E+000  0.000000E+000  0.206897E+000 -0.135245E+002 -0.137314E+002  0.344851E+000  0.186219E+000  0.655149E+000  0.353781E+000  0.000000E+000
  0.379310E+000  0.000000E+000  0.206897E+000 -0.135360E+002 -0.137429E+002  0.344761E+000  0.186171E+000  0.655239E+000  0.353829E+000  0.000000E+000
  0.413793E+000  0.000000E+000  0.206897E+000 -0.135444E+002 -0.137513E+002  0.344696E+000  0.186136E+000  0.655304E+000  0.353864E+000  0.000000E+000
  0.448276E+000  0.000000E+000  0.206897E+000 -0.135492E+002 -0.137561E+002  0.344658E+000  0.186115E+000  0.655342E+000  0.353885E+000  0.000000E+000
  0.482759E+000  0.000000E+000  0.206897E+000 -0.135501E+002 -0.137570E+002  0.344651E+000  0.186112E+000  0.655349E+000  0.353888E+000  0.000000E+000
  0.517241E+000  0.000000E+000  0.206897E+000 -0.135469E+002 -0.137538E+002  0.344676E+000  0.186125E+000  0.655324E+000  0.353875E+000  0.000000E+000
  0.551724E+000  0.000000E+000  0.206897E+000 -0.135397E+002 -0.137466E+002  0.344732E+000  0.186156E+000  0.655268E+000  0.353844E+000  0.000000E+000