title = "dataset transp-updrld"
variables = "x", "y", "z", "k_xx", "k_yy", "k_zz"
zone t = "K - initial [m/s]", i =   30, j =   30, k =    1,  f=point
  0.0000000E+00  0.0000000E+00  0.0000000E+00  0.1000000E-04  0.0000000E+00  0.1000000E-04
  0.3448276E-01  0.0000000E+00  0.0000000E+00  0.1000000E-04  0.0000000E+00  0.1000000E-04
  0.6896552E-01  0.0000000E+00  0.0000000E+00  0.1000000E-04  0.0000000E+00  0.1000000E-04
  0.1034483E+00  0.0000000E+00  0.0000000E+00  0.1000000E-04  0.0000000E+00  0.1000000E-04
  0.1379310E+00  0.0000000E+00  0.0000000E+00  0.1000000E-04  0.0000000E+00  0.1000000E-04
  0.1724138E+00  0.0000000E+00  0.0000000E+00  0.1000000E-04  0.0000000E+00  0.1000000E-04
  0.2068966E+00  0.0000000E+00  0.0000000E+00  0.1000000E-04  0.0000000E+00  0.1000000E-04
  0.2413793E+00  0.0000000E+00  0.0000000E+00  0.1000000E-04  0.0000000E+00  0.1000000E-04
  0.2758621E+00  0.0000000E+00  0.0000000E+00  0.1000000E-04  0.0000000E+00  0.1000000E-04
  0.3103448E+00  0.0000000E+00  0.0000000E+00  0.1000000E-04  0.0000000E+00  0.1000000E-04
  0.3448276E+00  0.0000000E+00  0.0000000E+00  0.1000000E-04  0.0000000E+00  0.1000000E-04
  0.3793103E+00  0.0000000E+00  0.0000000E+00  0.1000000E-04  0.0000000E+00  0.1000000E-04
  0.4137931E+00  0.0000000E+00  0.0000000E+00  0.1000000E-04  0.0000000E+00  0.1000000E-04
  0.4482759E+00  0.0000000E+00  0.0000000E+00  0.1000000E-04  0.0000000E+00  0.1000000E-04
  0.4827586E+00  0.0000000E+00  0.0000000E+00  0.1000000E-04  0.0000000E+00  0.1000000E-04
  0.5172414E+00  0.0000000E+00  0.0000000E+00  0.1000000E-04  0.0000000E+00  0.1000000E-04
  0.5517241E+00  0.0000000E+00  0.0000000E+00  0.1000000E-04  0.0000000E+00  0.1000000E-04
  0.5862069E+00  0.0000000E+00  0.0000000E+00  0.1000000E-04  0.0000000E+00  0.1000000E-04
  0.6206897E+00  0.0000000E+00  0.0000000E+00  0.1000000E-04  0.0000000E+00  0.1000000E-04
  0.6551724E+00  0.0000000E+00  0.0000000E+00  0.1000000E-04  0.0000000E+00  0.1000000E-04
  0.6896552E+00  0.0000000E+00  0.0000000E+00  0.1000000E-04  0.0000000E+00  0.1000000E-04
  0.7241379E+00  0.0000000E+00  0.0000000E+00  0.1000000E-04  0.0000000E+00  0.1000000E-04
  0.7586207E+00  0.0000000E+00  0.0000000E+00  0.1000000E-04  0.0000000E+00  0.1000000E-04
  0.7931034E+00  0.0000000E+00  0.0000000E+00  0.1000000E-04  0.0000000E+00  0.1000000E-04
  0.8275862E+00  0.0000000E+00  0.0000000E+00  0.1000000E-04  0.0000000E+00  0.1000000E-04
  0.8620690E+00  0.0000000E+00  0.0000000E+00  0.1000000E-04  0.0000000E+00  0.1000000E-04
  0.8965517E+00  0.0000000E+00  0.0000000E+00  0.1000000E-04  0.0000000E+00  0.1000000E-04
  0.9310345E+00  0.0000000E+00  0.0000000E+00  0.1000000E-04  0.0000000E+00  0.1000000E-04
  0.9655172E+00  0.0000000E+00  0.0000000E+00  0.1000000E-04  0.0000000E+00  0.1000000E-04
  0.1000000E+01  0.0000000E+00  0.0000000E+00  0.1000000E-04  0.0000000E+00  0.1000000E-04
  0.0000000E+00  0.0000000E+00  0.3448276E-01  0.1000000E-04  0.0000000E+00  0.1000000E-04
  0.3448276E-01  0.0000000E+00  0.3448276E-01  0.1000000E-04  0.0000000E+00  0.1000000E-04
  0.6896552E-01  0.0000000E+00  0.3448276E-01  0.1000000E-04  0.0000000E+00  0.1000000E-04
  0.1034483E+00  0.0000000E+00  0.3448276E-01  0.1000000E-04  0.0000000E+00  0.1000000E-04
  0.1379310E+00  0.0000000E+00  0.3448276E-01  0.1000000E-04  0.0000000E+00  0.1000000E-04
  0.1724138E+00  0.0000000E+00  0.3448276E-01  0.1000000E-04  0.0000000E+00  0.1000000E-04
  0.2068966E+00  0.0000000E+00  0.3448276E-01  0.1000000E-04  0.0000000E+00  0.1000000E-04
  0.2413793E+00  0.0000000E+00  0.3448276E-01  0.1000000E-04  0.0000000E+00  0.1000000E-04
  0.2758621E+00  0.0000000E+00  0.3448276E-01  0.1000000E-04  0.0000000E+00  0.1000000E-04
  0.3103448E+00  0.0000000E+00  0.3448276E-01  0.1000000E-04  0.0000000E+00  0.1000000E-04
  0.3448276E+00  0.0000000E+00  0.3448276E-01  0.1000000E-04  0.0000000E+00  0.1000000E-04
  0.3793103E+00  0.0000000E+00  0.3448276E-01  0.1000000E-04  0.0000000E+00  0.1000000E-04
  0.4137931E+00  0.0000000E+00  0.3448276E-01  0.1000000E-04  0.0000000E+00  0.1000000E-04
  0.4482759E+00  0.0000000E+00  0.3448276E-01  0.1000000E-04  0.0000000E+00  0.1000000E-04
  0.4827586E+00  0.0000000E+00  0.3448276E-01  0.1000000E-04  0.0000000E+00  0.1000000E-04
  0.5172414E+00  0.0000000E+00  0.3448276E-01  0.1000000E-04  0.0000000E+00  0.1000000E-04
  0.5517241E+00  0.0000000E+00  0.3448276E-01  0.1000000E-04  0.0000000E+00  0.1000000E-04
  0.5862069E+00  0.0000000E+00  0.3448276E-01  0.1000000E-04  0.0000000E+00  0.1000000E-04
  0.6206897E+00  0.0000000E+00  0.3448276E-01  0.1000000E-04  0.0000000E+00  0.1000000E-04
  0.6551724E+00  0.0000000E+00  0.3448276E-01  0.1000000E-04  0.0000000E+00  0.1000000E-04
  0.6896552E+00  0.0000000E+00  0.3448276E-01  0.1000000E-04  0.0000000E+00  0.1000000E-04
  0.7241379E+00  0.0000000E+00  0.3448276E-01  0.1000000E-04  0.0000000E+00  0.1000000E-04
  0.7586207E+00  0.0000000E+00  0.3448276E-01  0.1000000E-04  0.0000000E+00  0.1000000E-04
  0.7931034E+00  0.0000000E+00  0.3448276E-01  0.1000000E-04  0.0000000E+00  0.1000000E-04
  0.8275862E+00  0.0000000E+00  0.3448276E-01  0.1000000E-04  0.0000000E+00  0.1000000E-04
  0.8620690E+00  0.0000000E+00  0.3448276E-01  0.1000000E-04  0.0000000E+00  0.1000000E-04
  0.8965517E+00  0.0000000E+00  0.3448276E-01  0.1000000E-04  0.0000000E+00  0.1000000E-04
  0.9310345E+00  0.0000000E+00  0.3448276E-01  0.1000000E-04  0.0000000E+00  0.1000000E-04
  0.9655172E+00  0.0000000E+00  0.3448276E-01  0.1000000E-04  0.0000000E+00  0.1000000E-04
  0.1000000E+01  0.0000000E+00  0.3448276E-01  0.1000000E-04  0.0000000E+00  0.1000000E-04
  0.0000000E+00  0.0000000E+00  0.6896552E-01  0.1000000E-04  0.0000000E+00  0.1000000E-04
  0.3448276E-01  0.0000000E+00  0.6896552E-01  0.1000000E-04  0.0000000E+00  0.1000000E-04
  0.6896552E-01  0.0000000E+00  0.6896552E-01  0.1000000E-04  0.0000000E+00  0.1000000E-04
  0.1034483E+00  0.0000000E+00  0.6896552E-01  0.1000000E-04  0.0000000E+00  0.1000000E-04
  0.1379310E+00  0.0000000E+00  0.6896552E-01  0.1000000E-04  0.0000000E+00  0.1000000E-04
  0.1724138E+00  0.0000000E+00  0.6896552E-01  0.1000000E-04  0.0000000E+00  0.1000000E-04
  0.2068966E+00  0.0000000E+00  0.6896552E-01  0.1000000E-04  0.0000000E+00  0.1000000E-04
  0.2413793E+00  0.0000000E+00  0.6896552E-01  0.1000000E-04  0.0000000E+00  0.1000000E-04
  0.2758621E+00  0.0000000E+00  0.6896552E-01  0.1000000E-04  0.0000000E+00  0.1000000E-04
  0.3103448E+00  0.0000000E+00  0.6896552E-01  0.1000000E-04  0.0000000E+00  0.1000000E-04
  0.3448276E+00  0.0000000E+00  0.6896552E-01  0.1000000E-04  0.0000000E+00  0.1000000E-04
  0.3793103E+00  0.0000000E+00  0.6896552E-01  0.1000000E-04  0.0000000E+00  0.1000000E-04
  0.4137931E+00  0.0000000E+00  0.6896552E-01  0.1000000E-04  0.0000000E+00  0.1000000E-04
  0.4482759E+00  0.0000000E+00  0.6896552E-01  0.1000000E-04  0.0000000E+00  0.1000000E-04
  0.4827586E+00  0.0000000E+00  0.6896552E-01  0.1000000E-04  0.0000000E+00  0.1000000E-04
  0.5172414E+00  0.0000000E+00  0.6896552E-01  0.1000000E-04  0.0000000E+00  0.1000000E-04
  0.5517241E+00  0.0000000E+00  0.6896552E-01  0.1000000E-04  0.0000000E+00  0.1000000E-04
  0.5862069E+00  0.0000000E+00  0.6896552E-01  0.1000000E-04  0.0000000E+00  0.1000000E-04
  0.6206897E+00  0.0000000E+00  0.6896552E-01  0.1000000E-04  0.0000000E+00  0.1000000E-04
  0.6551724E+00  0.0000000E+00  0.6896552E-01  0.1000000E-04  0.0000000E+00  0.1000000E-04
  0.6896552E+00  0.0000000E+00  0.6896552E-01  0.1000000E-04  0.0000000E+00  0.1000000E-04
  0.7241379E+00  0.0000000E+00  0.6896552E-01  0.1000000E-04  0.0000000E+00  0.1000000E-04
  0.7586207E+00  0.0000000E+00  0.6896552E-01  0.1000000E-04  0.0000000E+00  0.1000000E-04
  0.7931034E+00  0.0000000E+00  0.6896552E-01  0.1000000E-04  0.0000000E+00  0.1000000E-04
  0.8275862E+00  0.0000000E+00  0.6896552E-01  0.1000000E-04  0.0000000E+00  0.1000000E-04
  0.8620690E+00  0.0000000E+00  0.6896552E-01  0.1000000E-04  0.0000000E+00  0.1000000E-04
  0.8965517E+00  0.0000000E+00  0.6896552E-01  0.1000000E-04  0.0000000E+00  0.1000000E-04
  0.9310345E+00  0.0000000E+00  0.6896552E-01  0.1000000E-04  0.0000000E+00  0.1000000E-04
  0.9655172E+00  0.0000000E+00  0.6896552E-01  0.1000000E-04  0.0000000E+00  0.1000000E-04
  0.1000000E+01  0.0000000E+00  0.6896552E-01  0.1000000E-04  0.0000000E+00  0.1000000E-04
  0.0000000E+00  0.0000000E+00  0.1034483E+00  0.1000000E-04  0.0000000E+00  0.1000000E-04
  0.3448276E-01  0.0000000E+00  0.1034483E+00  0.1000000E-04  0.0000000E+00  0.1000000E-04
  0.6896552E-01  0.0000000E+00  0.1034483E+00  0.1000000E-04  0.0000000E+00  0.1000000E-04
  0.1034483E+00  0.0000000E+00  0.1034483E+00  0.1000000E-04  0.0000000E+00  0.1000000E-04
  0.1379310E+00  0.0000000E+00  0.1034483E+00  0.1000000E-04  0.0000000E+00  0.1000000E-04
  0.1724138E+00  0.0000000E+00  0.1034483E+00  0.1000000E-04  0.0000000E+00  0.1000000E-04
  0.2068966E+00  0.0000000E+00  0.1034483E+00  0.1000000E-04  0.0000000E+00  0.1000000E-04
  0.2413793E+00  0.0000000E+00  0.1034483E+00  0.1000000E-04  0.0000000E+00  0.1000000E-04
  0.2758621E+00  0.0000000E+00  0.1034483E+00  0.1000000E-04  0.0000000E+00  0.1000000E-04
  0.3103448E+00  0.0000000E+00  0.1034483E+00  0.1000000E-04  0.0000000E+00  0.1000000E-04
  0.3448276E+00  0.0000000E+00  0.1034483E+00  0.1000000E-04  0.0000000E+00  0.1000000E-04
  0.3793103E+00  0.0000000E+00  0.1034483E+00  0.1000000E-04  0.0000000E+00  0.1000000E-04
  0.4137931E+00  0.0000000E+00  0.1034483E+00  0.1000000E-04  0.0000000E+00  0.1000000E-04
  0.4482759E+00  0.0000000E+00  0.1034483E+00  0.1000000E-04  0.0000000E+00  0.1000000E-04
  0.4827586E+00  0.0000000E+00  0.1034483E+00  0.1000000E-04  0.0000000E+00  0.1000000E-04
  0.5172414E+00  0.0000000E+00  0.1034483E+00  0.1000000E-04  0.0000000E+00  0.1000000E-04
  0.5517241E+00  0.0000000E+00  0.1034483E+00  0.1000000E-04  0.0000000E+00  0.1000000E-04
  0.5862069E+00  0.0000000E+00  0.1034483E+00  0.1000000E-04  0.0000000E+00  0.1000000E-04
  0.6206897E+00  0.0000000E+00  0.1034483E+00  0.1000000E-04  0.0000000E+00  0.1000000E-04
  0.6551724E+00  0.0000000E+00  0.1034483E+00  0.1000000E-04  0.0000000E+00  0.1000000E-04
  0.6896552E+00  0.0000000E+00  0.1034483E+00  0.1000000E-04  0.0000000E+00  0.1000000E-04
  0.7241379E+00  0.0000000E+00  0.1034483E+00  0.1000000E-04  0.0000000E+00  0.1000000E-04
  0.7586207E+00  0.0000000E+00  0.1034483E+00  0.1000000E-04  0.0000000E+00  0.1000000E-04
  0.7931034E+00  0.0000000E+00  0.1034483E+00  0.1000000E-04  0.0000000E+00  0.1000000E-04
  0.8275862E+00  0.0000000E+00  0.1034483E+00  0.1000000E-04  0.0000000E+00  0.1000000E-04
  0.8620690E+00  0.0000000E+00  0.1034483E+00  0.1000000E-04  0.0000000E+00  0.1000000E-04
  0.8965517E+00  0.0000000E+00  0.1034483E+00  0.1000000E-04  0.0000000E+00  0.1000000E-04
  0.9310345E+00  0.0000000E+00  0.1034483E+00  0.1000000E-04  0.0000000E+00  0.1000000E-04
  0.9655172E+00  0.0000000E+00  0.1034483E+00  0.1000000E-04  0.0000000E+00  0.1000000E-04
  0.1000000E+01  0.0000000E+00  0.1034483E+00  0.1000000E-04  0.0000000E+00  0.1000000E-04
  0.0000000E+00  0.0000000E+00  0.1379310E+00  0.1000000E-04  0.0000000E+00  0.1000000E-04
  0.3448276E-01  0.0000000E+00  0.1379310E+00  0.1000000E-04  0.0000000E+00  0.1000000E-04
  0.6896552E-01  0.0000000E+00  0.1379310E+00  0.1000000E-04  0.0000000E+00  0.1000000E-04
  0.1034483E+00  0.0000000E+00  0.1379310E+00  0.1000000E-04  0.0000000E+00  0.1000000E-04
  0.1379310E+00  0.0000000E+00  0.1379310E+00  0.1000000E-04  0.0000000E+00  0.1000000E-04
  0.1724138E+00  0.0000000E+00  0.1379310E+00  0.1000000E-04  0.0000000E+00  0.1000000E-04
  0.2068966E+00  0.0000000E+00  0.1379310E+00  0.1000000E-04  0.0000000E+00  0.1000000E-04
  0.2413793E+00  0.0000000E+00  0.1379310E+00  0.1000000E-04  0.0000000E+00  0.1000000E-04
  0.2758621E+00  0.0000000E+00  0.1379310E+00  0.1000000E-04  0.0000000E+00  0.1000000E-04
  0.3103448E+00  0.0000000E+00  0.1379310E+00  0.1000000E-04  0.0000000E+00  0.1000000E-04
  0.3448276E+00  0.0000000E+00  0.1379310E+00  0.1000000E-04  0.0000000E+00  0.1000000E-04
  0.3793103E+00  0.0000000E+00  0.1379310E+00  0.1000000E-04  0.0000000E+00  0.1000000E-04
  0.4137931E+00  0.0000000E+00  0.1379310E+00  0.1000000E-04  0.0000000E+00  0.1000000E-04
  0.4482759E+00  0.0000000E+00  0.1379310E+00  0.1000000E-04  0.0000000E+00  0.1000000E-04
  0.4827586E+00  0.0000000E+00  0.1379310E+00  0.1000000E-04  0.0000000E+00  0.1000000E-04
  0.5172414E+00  0.0000000E+00  0.1379310E+00  0.1000000E-04  0.0000000E+00  0.1000000E-04
  0.5517241E+00  0.0000000E+00  0.1379310E+00  0.1000000E-04  0.0000000E+00  0.1000000E-04
  0.5862069E+00  0.0000000E+00  0.1379310E+00  0.1000000E-04  0.0000000E+00  0.1000000E-04
  0.6206897E+00  0.0000000E+00  0.1379310E+00  0.1000000E-04  0.0000000E+00  0.1000000E-04
  0.6551724E+00  0.0000000E+00  0.1379310E+00  0.1000000E-04  0.0000000E+00  0.1000000E-04
  0.6896552E+00  0.0000000E+00  0.1379310E+00  0.1000000E-04  0.0000000E+00  0.1000000E-04
  0.7241379E+00  0.0000000E+00  0.1379310E+00  0.1000000E-04  0.0000000E+00  0.1000000E-04
  0.7586207E+00  0.0000000E+00  0.1379310E+00  0.1000000E-04  0.0000000E+00  0.1000000E-04
  0.7931034E+00  0.0000000E+00  0.1379310E+00  0.1000000E-04  0.0000000E+00  0.1000000E-04
  0.8275862E+00  0.0000000E+00  0.1379310E+00  0.1000000E-04  0.0000000E+00  0.1000000E-04
  0.8620690E+00  0.0000000E+00  0.1379310E+00  0.1000000E-04  0.0000000E+00  0.1000000E-04
  0.8965517E+00  0.0000000E+00  0.1379310E+00  0.1000000E-04  0.0000000E+00  0.1000000E-04
  0.9310345E+00  0.0000000E+00  0.1379310E+00  0.1000000E-04  0.0000000E+00  0.1000000E-04
  0.9655172E+00  0.0000000E+00  0.1379310E+00  0.1000000E-04  0.0000000E+00  0.1000000E-04
  0.1000000E+01  0.0000000E+00  0.1379310E+00  0.1000000E-04  0.0000000E+00  0.1000000E-04
  0.0000000E+00  0.0000000E+00  0.1724138E+00  0.1000000E-04  0.0000000E+00  0.1000000E-04
  0.3448276E-01  0.0000000E+00  0.1724138E+00  0.1000000E-04  0.0000000E+00  0.1000000E-04
  0.6896552E-01  0.0000000E+00  0.1724138E+00  0.1000000E-04  0.0000000E+00  0.1000000E-04
  0.1034483E+00  0.0000000E+00  0.1724138E+00  0.1000000E-04  0.0000000E+00  0.1000000E-04
  0.1379310E+00  0.0000000E+00  0.1724138E+00  0.1000000E-04  0.0000000E+00  0.1000000E-04
  0.1724138E+00  0.0000000E+00  0.1724138E+00  0.1000000E-04  0.0000000E+00  0.1000000E-04
  0.2068966E+00  0.0000000E+00  0.1724138E+00  0.1000000E-04  0.0000000E+00  0.1000000E-04
  0.2413793E+00  0.0000000E+00  0.1724138E+00  0.1000000E-04  0.0000000E+00  0.1000000E-04
  0.2758621E+00  0.0000000E+00  0.1724138E+00  0.1000000E-04  0.0000000E+00  0.1000000E-04
  0.3103448E+00  0.0000000E+00  0.1724138E+00  0.1000000E-04  0.0000000E+00  0.1000000E-04
  0.3448276E+00  0.0000000E+00  0.1724138E+00  0.1000000E-04  0.0000000E+00  0.1000000E-04
  0.3793103E+00  0.0000000E+00  0.1724138E+00  0.1000000E-04  0.0000000E+00  0.1000000E-04
  0.4137931E+00  0.0000000E+00  0.1724138E+00  0.1000000E-04  0.0000000E+00  0.1000000E-04
  0.4482759E+00  0.0000000E+00  0.1724138E+00  0.1000000E-04  0.0000000E+00  0.1000000E-04
  0.4827586E+00  0.0000000E+00  0.1724138E+00  0.1000000E-04  0.0000000E+00  0.1000000E-04
  0.5172414E+00  0.0000000E+00  0.1724138E+00  0.1000000E-04  0.0000000E+00  0.1000000E-04
  0.5517241E+00  0.0000000E+00  0.1724138E+00  0.1000000E-04  0.0000000E+00  0.1000000E-04
  0.5862069E+00  0.0000000E+00  0.1724138E+00  0.1000000E-04  0.0000000E+00  0.1000000E-04
  0.6206897E+00  0.0000000E+00  0.1724138E+00  0.1000000E-04  0.0000000E+00  0.1000000E-04
  0.6551724E+00  0.0000000E+00  0.1724138E+00  0.1000000E-04  0.0000000E+00  0.1000000E-04
  0.6896552E+00  0.0000000E+00  0.1724138E+00  0.1000000E-04  0.0000000E+00  0.1000000E-04
  0.7241379E+00  0.0000000E+00  0.1724138E+00  0.1000000E-04  0.0000000E+00  0.1000000E-04
  0.7586207E+00  0.0000000E+00  0.1724138E+00  0.1000000E-04  0.0000000E+00  0.1000000E-04
  0.7931034E+00  0.0000000E+00  0.1724138E+00  0.1000000E-04  0.0000000E+00  0.1000000E-04
  0.8275862E+00  0.0000000E+00  0.1724138E+00  0.1000000E-04  0.0000000E+00  0.1000000E-04
  0.8620690E+00  0.0000000E+00  0.1724138E+00  0.1000000E-04  0.0000000E+00  0.1000000E-04
  0.8965517E+00  0.0000000E+00  0.1724138E+00  0.1000000E-04  0.0000000E+00  0.1000000E-04
  0.9310345E+00  0.0000000E+00  0.1724138E+00  0.1000000E-04  0.0000000E+00  0.1000000E-04
  0.9655172E+00  0.0000000E+00  0.1724138E+00  0.1000000E-04  0.0000000E+00  0.1000000E-04
  0.1000000E+01  0.0000000E+00  0.1724138E+00  0.1000000E-04  0.0000000E+00  0.1000000E-04
  0.0000000E+00  0.0000000E+00  0.2068966E+00  0.1000000E-04  0.0000000E+00  0.1000000E-04
  0.3448276E-01  0.0000000E+00  0.2068966E+00  0.1000000E-04  0.0000000E+00  0.1000000E-04
  0.6896552E-01  0.0000000E+00  0.2068966E+00  0.1000000E-04  0.0000000E+00  0.1000000E-04
  0.1034483E+00  0.0000000E+00  0.2068966E+00  0.1000000E-04  0.0000000E+00  0.1000000E-04
  0.1379310E+00  0.0000000E+00  0.2068966E+00  0.1000000E-04  0.0000000E+00  0.1000000E-04
  0.1724138E+00  0.0000000E+00  0.2068966E+00  0.1000000E-04  0.0000000E+00  0.1000000E-04
  0.2068966E+00  0.0000000E+00  0.2068966E+00  0.1000000E-04  0.0000000E+00  0.1000000E-04
  0.2413793E+00  0.0000000E+00  0.2068966E+00  0.1000000E-04  0.0000000E+00  0.1000000E-04
  0.2758621E+00  0.0000000E+00  0.2068966E+00  0.1000000E-04  0.0000000E+00  0.1000000E-04
  0.3103448E+00  0.0000000E+00  0.2068966E+00  0.1000000E-04  0.0000000E+00  0.1000000E-04
  0.3448276E+00  0.0000000E+00  0.2068966E+00  0.1000000E-04  0.0000000E+00  0.1000000E-04
  0.3793103E+00  0.0000000E+00  0.2068966E+00  0.1000000E-04  0.0000000E+00  0.1000000E-04
  0.4137931E+00  0.0000000E+00  0.2068966E+00  0.1000000E-04  0.0000000E+00  0.1000000E-04
  0.4482759E+00  0.0000000E+00  0.2068966E+00  0.1000000E-04  0.0000000E+00  0.1000000E-04
  0.4827586E+00  0.0000000E+00  0.2068966E+00  0.1000000E-04  0.0000000E+00  0.1000000E-04
  0.5172414E+00  0.0000000E+00  0.2068966E+00  0.1000000E-04  0.0000000E+00  0.1000000E-04
  0.5517241E+00  0.0000000E+00  0.2068966E+00  0.1000000E-04  0.0000000E+00  0.1000000E-04
  0.5862069E+00  0.0000000E+00  0.2068966E+00  0.1000000E-04  0.0000000E+00  0.1000000E-04
  0.6206897E+00  0.0000000E+00  0.2068966E+00  0.1000000E-04  0.0000000E+00  0.1000000E-04
  0.6551724E+00  0.0000000E+00  0.2068966E+00  0.1000000E-04  0.0000000E+00  0.1000000E-04
  0.6896552E+00  0.0000000E+00  0.2068966E+00  0.1000000E-04  0.0000000E+00  0.1000000E-04
  0.7241379E+00  0.0000000E+00  0.2068966E+00  0.1000000E-04  0.0000000E+00  0.1000000E-04
  0.7586207E+00  0.0000000E+00  0.2068966E+00  0.1000000E-04  0.0000000E+00  0.1000000E-04
  0.7931034E+00  0.0000000E+00  0.2068966E+00  0.1000000E-04  0.0000000E+00  0.1000000E-04
  0.8275862E+00  0.0000000E+00  0.2068966E+00  0.1000000E-04  0.0000000E+00  0.1000000E-04
  0.8620690E+00  0.0000000E+00  0.2068966E+00  0.1000000E-04  0.0000000E+00  0.1000000E-04
  0.8965517E+00  0.0000000E+00  0.2068966E+00  0.1000000E-04  0.0000000E+00  0.1000000E-04
  0.9310345E+00  0.0000000E+00  0.2068966E+00  0.1000000E-04  0.0000000E+00  0.1000000E-04
  0.9655172E+00  0.0000000E+00  0.2068966E+00  0.1000000E-04  0.0000000E+00  0.1000000E-04
  0.1000000E+01  0.0000000E+00  0.2068966E+00  0.1000000E-04  0.0000000E+00  0.1000000E-04
  0.0000000E+00  0.0000000E+00  0.2413793E+00  0.1000000E-04  0.0000000E+00  0.1000000E-04
  0.3448276E-01  0.0000000E+00  0.2413793E+00  0.1000000E-04  0.0000000E+00  0.1000000E-04
  0.6896552E-01  0.0000000E+00  0.2413793E+00  0.1000000E-04  0.0000000E+00  0.1000000E-04
  0.1034483E+00  0.0000000E+00  0.2413793E+00  0.1000000E-04  0.0000000E+00  0.1000000E-04
  0.1379310E+00  0.0000000E+00  0.2413793E+00  0.1000000E-04  0.0000000E+00  0.1000000E-04
  0.1724138E+00  0.0000000E+00  0.2413793E+00  0.1000000E-04  0.0000000E+00  0.1000000E-04
  0.2068966E+00  0.0000000E+00  0.2413793E+00  0.1000000E-04  0.0000000E+00  0.1000000E-04
  0.2413793E+00  0.0000000E+00  0.2413793E+00  0.1000000E-04  0.0000000E+00  0.1000000E-04
  0.2758621E+00  0.0000000E+00  0.2413793E+00  0.1000000E-04  0.0000000E+00  0.1000000E-04
  0.3103448E+00  0.0000000E+00  0.2413793E+00  0.1000000E-04  0.0000000E+00  0.1000000E-04
  0.3448276E+00  0.0000000E+00  0.2413793E+00  0.1000000E-04  0.0000000E+00  0.1000000E-04
  0.3793103E+00  0.0000000E+00  0.2413793E+00  0.1000000E-04  0.0000000E+00  0.1000000E-04
  0.4137931E+00  0.0000000E+00  0.2413793E+00  0.1000000E-04  0.0000000E+00  0.1000000E-04
  0.4482759E+00  0.0000000E+00  0.2413793E+00  0.1000000E-04  0.0000000E+00  0.1000000E-04
  0.4827586E+00  0.0000000E+00  0.2413793E+00  0.1000000E-04  0.0000000E+00  0.1000000E-04
  0.5172414E+00  0.0000000E+00  0.2413793E+00  0.1000000E-04  0.0000000E+00  0.1000000E-04
  0.5517241E+00  0.0000000E+00  0.2413793E+00  0.1000000E-04  0.0000000E+00  0.1000000E-04
  0.5862069E+00  0.0000000E+00  0.2413793E+00  0.1000000E-04  0.0000000E+00  0.1000000E-04
  0.6206897E+00  0.0000000E+00  0.2413793E+00  0.1000000E-04  0.0000000E+00  0.1000000E-04
  0.6551724E+00  0.0000000E+00  0.2413793E+00  0.1000000E-04  0.0000000E+00  0.1000000E-04
  0.6896552E+00  0.0000000E+00  0.2413793E+00  0.1000000E-04  0.0000000E+00  0.1000000E-04
  0.7241379E+00  0.0000000E+00  0.2413793E+00  0.1000000E-04  0.0000000E+00  0.1000000E-04
  0.7586207E+00  0.0000000E+00  0.2413793E+00  0.1000000E-04  0.0000000E+00  0.1000000E-04
  0.7931034E+00  0.0000000E+00  0.2413793E+00  0.1000000E-04  0.0000000E+00  0.1000000E-04
  0.8275862E+00  0.0000000E+00  0.2413793E+00  0.1000000E-04  0.0000000E+00  0.1000000E-04
  0.8620690E+00  0.0000000E+00  0.2413793E+00  0.1000000E-04  0.0000000E+00  0.1000000E-04
  0.8965517E+00  0.0000000E+00  0.2413793E+00  0.1000000E-04  0.0000000E+00  0.1000000E-04
  0.9310345E+00  0.0000000E+00  0.2413793E+00  0.1000000E-04  0.0000000E+00  0.1000000E-04
  0.9655172E+00  0.0000000E+00  0.2413793E+00  0.1000000E-04  0.0000000E+00  0.1000000E-04
  0.1000000E+01  0.0000000E+00  0.2413793E+00  0.1000000E-04  0.0000000E+00  0.1000000E-04
  0.0000000E+00  0.0000000E+00  0.2758621E+00  0.1000000E-04  0.0000000E+00  0.1000000E-04
  0.3448276E-01  0.0000000E+00  0.2758621E+00  0.1000000E-04  0.0000000E+00  0.1000000E-04
  0.6896552E-01  0.0000000E+00  0.2758621E+00  0.1000000E-04  0.0000000E+00  0.1000000E-04
  0.1034483E+00  0.0000000E+00  0.2758621E+00  0.1000000E-04  0.0000000E+00  0.1000000E-04
  0.1379310E+00  0.0000000E+00  0.2758621E+00  0.1000000E-04  0.0000000E+00  0.1000000E-04
  0.1724138E+00  0.0000000E+00  0.2758621E+00  0.1000000E-04  0.0000000E+00  0.1000000E-04
  0.2068966E+00  0.0000000E+00  0.2758621E+00  0.1000000E-04  0.0000000E+00  0.1000000E-04
  0.2413793E+00  0.0000000E+00  0.2758621E+00  0.1000000E-04  0.0000000E+00  0.1000000E-04
  0.2758621E+00  0.0000000E+00  0.2758621E+00  0.1000000E-04  0.0000000E+00  0.1000000E-04
  0.3103448E+00  0.0000000E+00  0.2758621E+00  0.1000000E-04  0.0000000E+00  0.1000000E-04
  0.3448276E+00  0.0000000E+00  0.2758621E+00  0.1000000E-04  0.0000000E+00  0.1000000E-04
  0.3793103E+00  0.0000000E+00  0.2758621E+00  0.1000000E-04  0.0000000E+00  0.1000000E-04
  0.4137931E+00  0.0000000E+00  0.2758621E+00  0.1000000E-04  0.0000000E+00  0.1000000E-04
  0.4482759E+00  0.0000000E+00  0.2758621E+00  0.1000000E-04  0.0000000E+00  0.1000000E-04
  0.4827586E+00  0.0000000E+00  0.2758621E+00  0.1000000E-04  0.0000000E+00  0.1000000E-04
  0.5172414E+00  0.0000000E+00  0.2758621E+00  0.1000000E-04  0.0000000E+00  0.1000000E-04
  0.5517241E+00  0.0000000E+00  0.2758621E+00  0.1000000E-04  0.0000000E+00  0.1000000E-04
  0.5862069E+00  0.0000000E+00  0.2758621E+00  0.1000000E-04  0.0000000E+00  0.1000000E-04
  0.6206897E+00  0.0000000E+00  0.2758621E+00  0.1000000E-04  0.0000000E+00  0.1000000E-04
  0.6551724E+00  0.0000000E+00  0.2758621E+00  0.1000000E-04  0.0000000E+00  0.1000000E-04
  0.6896552E+00  0.0000000E+00  0.2758621E+00  0.1000000E-04  0.0000000E+00  0.1000000E-04
  0.7241379E+00  0.0000000E+00  0.2758621E+00  0.1000000E-04  0.0000000E+00  0.1000000E-04
  0.7586207E+00  0.0000000E+00  0.2758621E+00  0.1000000E-04  0.0000000E+00  0.1000000E-04
  0.7931034E+00  0.0000000E+00  0.2758621E+00  0.1000000E-04  0.0000000E+00  0.1000000E-04
  0.8275862E+00  0.0000000E+00  0.2758621E+00  0.1000000E-04  0.0000000E+00  0.1000000E-04
  0.8620690E+00  0.0000000E+00  0.2758621E+00  0.1000000E-04  0.0000000E+00  0.1000000E-04
  0.8965517E+00  0.0000000E+00  0.2758621E+00  0.1000000E-04  0.0000000E+00  0.1000000E-04
  0.9310345E+00  0.0000000E+00  0.2758621E+00  0.1000000E-04  0.0000000E+00  0.1000000E-04
  0.9655172E+00  0.0000000E+00  0.2758621E+00  0.1000000E-04  0.0000000E+00  0.1000000E-04
  0.1000000E+01  0.0000000E+00  0.2758621E+00  0.1000000E-04  0.0000000E+00  0.1000000E-04
  0.0000000E+00  0.0000000E+00  0.3103448E+00  0.1000000E-04  0.0000000E+00  0.1000000E-04
  0.3448276E-01  0.0000000E+00  0.3103448E+00  0.1000000E-04  0.0000000E+00  0.1000000E-04
  0.6896552E-01  0.0000000E+00  0.3103448E+00  0.1000000E-04  0.0000000E+00  0.1000000E-04
  0.1034483E+00  0.0000000E+00  0.3103448E+00  0.1000000E-04  0.0000000E+00  0.1000000E-04
  0.1379310E+00  0.0000000E+00  0.3103448E+00  0.1000000E-04  0.0000000E+00  0.1000000E-04
  0.1724138E+00  0.0000000E+00  0.3103448E+00  0.1000000E-04  0.0000000E+00  0.1000000E-04
  0.2068966E+00  0.0000000E+00  0.3103448E+00  0.1000000E-04  0.0000000E+00  0.1000000E-04
  0.2413793E+00  0.0000000E+00  0.3103448E+00  0.1000000E-04  0.0000000E+00  0.1000000E-04
  0.2758621E+00  0.0000000E+00  0.3103448E+00  0.1000000E-04  0.0000000E+00  0.1000000E-04
  0.3103448E+00  0.0000000E+00  0.3103448E+00  0.1000000E-04  0.0000000E+00  0.1000000E-04
  0.3448276E+00  0.0000000E+00  0.3103448E+00  0.1000000E-04  0.0000000E+00  0.1000000E-04
  0.3793103E+00  0.0000000E+00  0.3103448E+00  0.1000000E-04  0.0000000E+00  0.1000000E-04
  0.4137931E+00  0.0000000E+00  0.3103448E+00  0.1000000E-04  0.0000000E+00  0.1000000E-04
  0.4482759E+00  0.0000000E+00  0.3103448E+00  0.1000000E-04  0.0000000E+00  0.1000000E-04
  0.4827586E+00  0.0000000E+00  0.3103448E+00  0.1000000E-04  0.0000000E+00  0.1000000E-04
  0.5172414E+00  0.0000000E+00  0.3103448E+00  0.1000000E-04  0.0000000E+00  0.1000000E-04
  0.5517241E+00  0.0000000E+00  0.3103448E+00  0.1000000E-04  0.0000000E+00  0.1000000E-04
  0.5862069E+00  0.0000000E+00  0.3103448E+00  0.1000000E-04  0.0000000E+00  0.1000000E-04
  0.6206897E+00  0.0000000E+00  0.3103448E+00  0.1000000E-04  0.0000000E+00  0.1000000E-04
  0.6551724E+00  0.0000000E+00  0.3103448E+00  0.1000000E-04  0.0000000E+00  0.1000000E-04
  0.6896552E+00  0.0000000E+00  0.3103448E+00  0.1000000E-04  0.0000000E+00  0.1000000E-04
  0.7241379E+00  0.0000000E+00  0.3103448E+00  0.1000000E-04  0.0000000E+00  0.1000000E-04
  0.7586207E+00  0.0000000E+00  0.3103448E+00  0.1000000E-04  0.0000000E+00  0.1000000E-04
  0.7931034E+00  0.0000000E+00  0.3103448E+00  0.1000000E-04  0.0000000E+00  0.1000000E-04
  0.8275862E+00  0.0000000E+00  0.3103448E+00  0.1000000E-04  0.0000000E+00  0.1000000E-04
  0.8620690E+00  0.0000000E+00  0.3103448E+00  0.1000000E-04  0.0000000E+00  0.1000000E-04
  0.8965517E+00  0.0000000E+00  0.3103448E+00  0.1000000E-04  0.0000000E+00  0.1000000E-04
  0.9310345E+00  0.0000000E+00  0.3103448E+00  0.1000000E-04  0.0000000E+00  0.1000000E-04
  0.9655172E+00  0.0000000E+00  0.3103448E+00  0.1000000E-04  0.0000000E+00  0.1000000E-04
  0.1000000E+01  0.0000000E+00  0.3103448E+00  0.1000000E-04  0.0000000E+00  0.1000000E-04
  0.0000000E+00  0.0000000E+00  0.3448276E+00  0.1000000E-04  0.0000000E+00  0.1000000E-04
  0.3448276E-01  0.0000000E+00  0.3448276E+00  0.1000000E-04  0.0000000E+00  0.1000000E-04
  0.6896552E-01  0.0000000E+00  0.3448276E+00  0.1000000E-04  0.0000000E+00  0.1000000E-04
  0.1034483E+00  0.0000000E+00  0.3448276E+00  0.1000000E-04  0.0000000E+00  0.1000000E-04
  0.1379310E+00  0.0000000E+00  0.3448276E+00  0.1000000E-04  0.0000000E+00  0.1000000E-04
  0.1724138E+00  0.0000000E+00  0.3448276E+00  0.1000000E-04  0.0000000E+00  0.1000000E-04
  0.2068966E+00  0.0000000E+00  0.3448276E+00  0.1000000E-04  0.0000000E+00  0.1000000E-04
  0.2413793E+00  0.0000000E+00  0.3448276E+00  0.1000000E-04  0.0000000E+00  0.1000000E-04
  0.2758621E+00  0.0000000E+00  0.3448276E+00  0.1000000E-04  0.0000000E+00  0.1000000E-04
  0.3103448E+00  0.0000000E+00  0.3448276E+00  0.1000000E-04  0.0000000E+00  0.1000000E-04
  0.3448276E+00  0.0000000E+00  0.3448276E+00  0.1000000E-04  0.0000000E+00  0.1000000E-04
  0.3793103E+00  0.0000000E+00  0.3448276E+00  0.1000000E-04  0.0000000E+00  0.1000000E-04
  0.4137931E+00  0.0000000E+00  0.3448276E+00  0.1000000E-04  0.0000000E+00  0.1000000E-04
  0.4482759E+00  0.0000000E+00  0.3448276E+00  0.1000000E-04  0.0000000E+00  0.1000000E-04
  0.4827586E+00  0.0000000E+00  0.3448276E+00  0.1000000E-04  0.0000000E+00  0.1000000E-04
  0.5172414E+00  0.0000000E+00  0.3448276E+00  0.1000000E-04  0.0000000E+00  0.1000000E-04
  0.5517241E+00  0.0000000E+00  0.3448276E+00  0.1000000E-04  0.0000000E+00  0.1000000E-04
  0.5862069E+00  0.0000000E+00  0.3448276E+00  0.1000000E-04  0.0000000E+00  0.1000000E-04
  0.6206897E+00  0.0000000E+00  0.3448276E+00  0.1000000E-04  0.0000000E+00  0.1000000E-04
  0.6551724E+00  0.0000000E+00  0.3448276E+00  0.1000000E-04  0.0000000E+00  0.1000000E-04
  0.6896552E+00  0.0000000E+00  0.3448276E+00  0.1000000E-04  0.0000000E+00  0.1000000E-04
  0.7241379E+00  0.0000000E+00  0.3448276E+00  0.1000000E-04  0.0000000E+00  0.1000000E-04
  0.7586207E+00  0.0000000E+00  0.3448276E+00  0.1000000E-04  0.0000000E+00  0.1000000E-04
  0.7931034E+00  0.0000000E+00  0.3448276E+00  0.1000000E-04  0.0000000E+00  0.1000000E-04
  0.8275862E+00  0.0000000E+00  0.3448276E+00  0.1000000E-04  0.0000000E+00  0.1000000E-04
  0.8620690E+00  0.0000000E+00  0.3448276E+00  0.1000000E-04  0.0000000E+00  0.1000000E-04
  0.8965517E+00  0.0000000E+00  0.3448276E+00  0.1000000E-04  0.0000000E+00  0.1000000E-04
  0.9310345E+00  0.0000000E+00  0.3448276E+00  0.1000000E-04  0.0000000E+00  0.1000000E-04