title = "dataset transp-updrld"
variables = "x", "y", "z", "vx", "vy", "vz"
zone t = "velocities, solution time =  3.000E+01 days        " i =   29, j =   29, k =    1,  f=point
  0.172414E-001  0.000000E+000  0.172414E-001  0.704509E-007  0.000000E+000 -0.218657E-002
  0.517241E-001  0.000000E+000  0.172414E-001  0.207877E-006  0.000000E+000 -0.218407E-002
  0.862069E-001  0.000000E+000  0.172414E-001  0.335033E-006  0.000000E+000 -0.217920E-002
  0.120690E+000  0.000000E+000  0.172414E-001  0.445461E-006  0.000000E+000 -0.217221E-002
  0.155172E+000  0.000000E+000  0.172414E-001  0.533243E-006  0.000000E+000 -0.216346E-002
  0.189655E+000  0.000000E+000  0.172414E-001  0.593241E-006  0.000000E+000 -0.215341E-002
  0.224138E+000  0.000000E+000  0.172414E-001  0.621367E-006  0.000000E+000 -0.214258E-002
  0.258621E+000  0.000000E+000  0.172414E-001  0.614867E-006  0.000000E+000 -0.213159E-002
  0.293103E+000  0.000000E+000  0.172414E-001  0.572598E-006  0.000000E+000 -0.212104E-002
  0.327586E+000  0.000000E+000  0.172414E-001  0.495257E-006  0.000000E+000 -0.211157E-002
  0.362069E+000  0.000000E+000  0.172414E-001  0.385530E-006  0.000000E+000 -0.210376E-002
  0.396552E+000  0.000000E+000  0.172414E-001  0.248106E-006  0.000000E+000 -0.209815E-002
  0.431034E+000  0.000000E+000  0.172414E-001  0.895194E-007  0.000000E+000 -0.209516E-002
  0.465517E+000  0.000000E+000  0.172414E-001 -0.821686E-007  0.000000E+000 -0.209510E-002
  0.500000E+000  0.000000E+000  0.172414E-001 -0.257831E-006  0.000000E+000 -0.209811E-002
  0.534483E+000  0.000000E+000  0.172414E-001 -0.428051E-006  0.000000E+000 -0.210418E-002
  0.568966E+000  0.000000E+000  0.172414E-001 -0.583837E-006  0.000000E+000 -0.211315E-002
  0.603448E+000  0.000000E+000  0.172414E-001 -0.717214E-006  0.000000E+000 -0.212469E-002
  0.637931E+000  0.000000E+000  0.172414E-001 -0.821702E-006  0.000000E+000 -0.213836E-002
  0.672414E+000  0.000000E+000  0.172414E-001 -0.892621E-006  0.000000E+000 -0.215362E-002
  0.706897E+000  0.000000E+000  0.172414E-001 -0.927216E-006  0.000000E+000 -0.216985E-002
  0.741379E+000  0.000000E+000  0.172414E-001 -0.924615E-006  0.000000E+000 -0.218641E-002
  0.775862E+000  0.000000E+000  0.172414E-001 -0.885668E-006  0.000000E+000 -0.220264E-002
  0.810345E+000  0.000000E+000  0.172414E-001 -0.812704E-006  0.000000E+000 -0.221791E-002
  0.844828E+000  0.000000E+000  0.172414E-001 -0.709256E-006  0.000000E+000 -0.223162E-002
  0.879310E+000  0.000000E+000  0.172414E-001 -0.579788E-006  0.000000E+000 -0.224326E-002
  0.913793E+000  0.000000E+000  0.172414E-001 -0.429451E-006  0.000000E+000 -0.225239E-002
  0.948276E+000  0.000000E+000  0.172414E-001 -0.263875E-006  0.000000E+000 -0.225868E-002
  0.991379E+000  0.000000E+000  0.172414E-001 -0.890056E-007  0.000000E+000 -0.226188E-002
  0.172414E-001  0.000000E+000  0.517241E-001  0.378266E-006  0.000000E+000 -0.240093E-002
  0.517241E-001  0.000000E+000  0.517241E-001  0.111602E-005  0.000000E+000 -0.239850E-002
  0.862069E-001  0.000000E+000  0.517241E-001  0.179816E-005  0.000000E+000 -0.239376E-002
  0.120690E+000  0.000000E+000  0.517241E-001  0.238970E-005  0.000000E+000 -0.238697E-002
  0.155172E+000  0.000000E+000  0.517241E-001  0.285873E-005  0.000000E+000 -0.237846E-002
  0.189655E+000  0.000000E+000  0.517241E-001  0.317773E-005  0.000000E+000 -0.236869E-002
  0.224138E+000  0.000000E+000  0.517241E-001  0.332504E-005  0.000000E+000 -0.235818E-002
  0.258621E+000  0.000000E+000  0.517241E-001  0.328633E-005  0.000000E+000 -0.234751E-002
  0.293103E+000  0.000000E+000  0.517241E-001  0.305600E-005  0.000000E+000 -0.233729E-002
  0.327586E+000  0.000000E+000  0.517241E-001  0.263833E-005  0.000000E+000 -0.232812E-002
  0.362069E+000  0.000000E+000  0.517241E-001  0.204813E-005  0.000000E+000 -0.232060E-002
  0.396552E+000  0.000000E+000  0.517241E-001  0.131073E-005  0.000000E+000 -0.231522E-002
  0.431034E+000  0.000000E+000  0.517241E-001  0.461086E-006  0.000000E+000 -0.231242E-002
  0.465517E+000  0.000000E+000  0.517241E-001 -0.458025E-006  0.000000E+000 -0.231248E-002
  0.500000E+000  0.000000E+000  0.517241E-001 -0.139855E-005  0.000000E+000 -0.231555E-002
  0.534483E+000  0.000000E+000  0.517241E-001 -0.231071E-005  0.000000E+000 -0.232161E-002
  0.568966E+000  0.000000E+000  0.517241E-001 -0.314675E-005  0.000000E+000 -0.233050E-002
  0.603448E+000  0.000000E+000  0.517241E-001 -0.386407E-005  0.000000E+000 -0.234191E-002
  0.637931E+000  0.000000E+000  0.517241E-001 -0.442776E-005  0.000000E+000 -0.235539E-002
  0.672414E+000  0.000000E+000  0.517241E-001 -0.481228E-005  0.000000E+000 -0.237042E-002
  0.706897E+000  0.000000E+000  0.517241E-001 -0.500215E-005  0.000000E+000 -0.238639E-002
  0.741379E+000  0.000000E+000  0.517241E-001 -0.499191E-005  0.000000E+000 -0.240267E-002
  0.775862E+000  0.000000E+000  0.517241E-001 -0.478536E-005  0.000000E+000 -0.241862E-002
  0.810345E+000  0.000000E+000  0.517241E-001 -0.439438E-005  0.000000E+000 -0.243360E-002
  0.844828E+000  0.000000E+000  0.517241E-001 -0.383754E-005  0.000000E+000 -0.244706E-002
  0.879310E+000  0.000000E+000  0.517241E-001 -0.313873E-005  0.000000E+000 -0.245849E-002
  0.913793E+000  0.000000E+000  0.517241E-001 -0.232579E-005  0.000000E+000 -0.246745E-002
  0.948276E+000  0.000000E+000  0.517241E-001 -0.142941E-005  0.000000E+000 -0.247361E-002
  0.991379E+000  0.000000E+000  0.517241E-001 -0.482174E-006  0.000000E+000 -0.247675E-002
  0.172414E-001  0.000000E+000  0.862069E-001  0.964385E-006  0.000000E+000 -0.276906E-002
  0.517241E-001  0.000000E+000  0.862069E-001  0.284506E-005  0.000000E+000 -0.276673E-002
  0.862069E-001  0.000000E+000  0.862069E-001  0.458317E-005  0.000000E+000 -0.276220E-002
  0.120690E+000  0.000000E+000  0.862069E-001  0.608906E-005  0.000000E+000 -0.275569E-002
  0.155172E+000  0.000000E+000  0.862069E-001  0.728107E-005  0.000000E+000 -0.274754E-002
  0.189655E+000  0.000000E+000  0.862069E-001  0.808905E-005  0.000000E+000 -0.273818E-002
  0.224138E+000  0.000000E+000  0.862069E-001  0.845799E-005  0.000000E+000 -0.272812E-002
  0.258621E+000  0.000000E+000  0.862069E-001  0.835179E-005  0.000000E+000 -0.271792E-002
  0.293103E+000  0.000000E+000  0.862069E-001  0.775676E-005  0.000000E+000 -0.270816E-002
  0.327586E+000  0.000000E+000  0.862069E-001  0.668442E-005  0.000000E+000 -0.269944E-002
  0.362069E+000  0.000000E+000  0.862069E-001  0.517308E-005  0.000000E+000 -0.269231E-002
  0.396552E+000  0.000000E+000  0.862069E-001  0.328764E-005  0.000000E+000 -0.268727E-002
  0.431034E+000  0.000000E+000  0.862069E-001  0.111728E-005  0.000000E+000 -0.268473E-002
  0.465517E+000  0.000000E+000  0.862069E-001 -0.122916E-005  0.000000E+000 -0.268496E-002
  0.500000E+000  0.000000E+000  0.862069E-001 -0.362982E-005  0.000000E+000 -0.268811E-002
  0.534483E+000  0.000000E+000  0.862069E-001 -0.595832E-005  0.000000E+000 -0.269416E-002
  0.568966E+000  0.000000E+000  0.862069E-001 -0.809320E-005  0.000000E+000 -0.270294E-002
  0.603448E+000  0.000000E+000  0.862069E-001 -0.992589E-005  0.000000E+000 -0.271415E-002
  0.637931E+000  0.000000E+000  0.862069E-001 -0.113672E-004  0.000000E+000 -0.272735E-002
  0.672414E+000  0.000000E+000  0.862069E-001 -0.123513E-004  0.000000E+000 -0.274204E-002
  0.706897E+000  0.000000E+000  0.862069E-001 -0.128382E-004  0.000000E+000 -0.275762E-002
  0.741379E+000  0.000000E+000  0.862069E-001 -0.128130E-004  0.000000E+000 -0.277349E-002
  0.775862E+000  0.000000E+000  0.862069E-001 -0.122848E-004  0.000000E+000 -0.278901E-002
  0.810345E+000  0.000000E+000  0.862069E-001 -0.112832E-004  0.000000E+000 -0.280359E-002
  0.844828E+000  0.000000E+000  0.862069E-001 -0.985525E-005  0.000000E+000 -0.281667E-002
  0.879310E+000  0.000000E+000  0.862069E-001 -0.806195E-005  0.000000E+000 -0.282776E-002
  0.913793E+000  0.000000E+000  0.862069E-001 -0.597463E-005  0.000000E+000 -0.283646E-002
  0.948276E+000  0.000000E+000  0.862069E-001 -0.367222E-005  0.000000E+000 -0.284244E-002
  0.991379E+000  0.000000E+000  0.862069E-001 -0.123876E-005  0.000000E+000 -0.284549E-002
  0.172414E-001  0.000000E+000  0.120690E+000  0.171075E-005  0.000000E+000 -0.324076E-002
  0.517241E-001  0.000000E+000  0.120690E+000  0.504665E-005  0.000000E+000 -0.323856E-002
  0.862069E-001  0.000000E+000  0.120690E+000  0.812881E-005  0.000000E+000 -0.323426E-002
  0.120690E+000  0.000000E+000  0.120690E+000  0.107976E-004  0.000000E+000 -0.322810E-002
  0.155172E+000  0.000000E+000  0.120690E+000  0.129079E-004  0.000000E+000 -0.322039E-002
  0.189655E+000  0.000000E+000  0.120690E+000  0.143348E-004  0.000000E+000 -0.321154E-002
  0.224138E+000  0.000000E+000  0.120690E+000  0.149805E-004  0.000000E+000 -0.320202E-002
  0.258621E+000  0.000000E+000  0.120690E+000  0.147811E-004  0.000000E+000 -0.319239E-002
  0.293103E+000  0.000000E+000  0.120690E+000  0.137123E-004  0.000000E+000 -0.318319E-002
  0.327586E+000  0.000000E+000  0.120690E+000  0.117948E-004  0.000000E+000 -0.317498E-002
  0.362069E+000  0.000000E+000  0.120690E+000  0.909701E-005  0.000000E+000 -0.316832E-002
  0.396552E+000  0.000000E+000  0.120690E+000  0.573460E-005  0.000000E+000 -0.316366E-002
  0.431034E+000  0.000000E+000  0.120690E+000  0.186646E-005  0.000000E+000 -0.316140E-002
  0.465517E+000  0.000000E+000  0.120690E+000 -0.231362E-005  0.000000E+000 -0.316181E-002
  0.500000E+000  0.000000E+000  0.120690E+000 -0.658863E-005  0.000000E+000 -0.316501E-002
  0.534483E+000  0.000000E+000  0.120690E+000 -0.107337E-004  0.000000E+000 -0.317098E-002
  0.568966E+000  0.000000E+000  0.120690E+000 -0.145326E-004  0.000000E+000 -0.317957E-002
  0.603448E+000  0.000000E+000  0.120690E+000 -0.177922E-004  0.000000E+000 -0.319048E-002
  0.637931E+000  0.000000E+000  0.120690E+000 -0.203536E-004  0.000000E+000 -0.320329E-002
  0.672414E+000  0.000000E+000  0.120690E+000 -0.221001E-004  0.000000E+000 -0.321750E-002
  0.706897E+000  0.000000E+000  0.120690E+000 -0.229600E-004  0.000000E+000 -0.323255E-002
  0.741379E+000  0.000000E+000  0.120690E+000 -0.229073E-004  0.000000E+000 -0.324785E-002
  0.775862E+000  0.000000E+000  0.120690E+000 -0.219577E-004  0.000000E+000 -0.326279E-002
  0.810345E+000  0.000000E+000  0.120690E+000 -0.201641E-004  0.000000E+000 -0.327682E-002
  0.844828E+000  0.000000E+000  0.120690E+000 -0.176103E-004  0.000000E+000 -0.328939E-002
  0.879310E+000  0.000000E+000  0.120690E+000 -0.144048E-004  0.000000E+000 -0.330005E-002
  0.913793E+000  0.000000E+000  0.120690E+000 -0.106747E-004  0.000000E+000 -0.330840E-002
  0.948276E+000  0.000000E+000  0.120690E+000 -0.656086E-005  0.000000E+000 -0.331414E-002
  0.991379E+000  0.000000E+000  0.120690E+000 -0.221315E-005  0.000000E+000 -0.331706E-002
  0.172414E-001  0.000000E+000  0.155172E+000  0.251795E-005  0.000000E+000 -0.378430E-002
  0.517241E-001  0.000000E+000  0.155172E+000  0.742766E-005  0.000000E+000 -0.378224E-002
  0.862069E-001  0.000000E+000  0.155172E+000  0.119633E-004  0.000000E+000 -0.377822E-002
  0.120690E+000  0.000000E+000  0.155172E+000  0.158894E-004  0.000000E+000 -0.377245E-002
  0.155172E+000  0.000000E+000  0.155172E+000  0.189916E-004  0.000000E+000 -0.376522E-002
  0.189655E+000  0.000000E+000  0.155172E+000  0.210857E-004  0.000000E+000 -0.375693E-002
  0.224138E+000  0.000000E+000  0.155172E+000  0.220268E-004  0.000000E+000 -0.374803E-002
  0.258621E+000  0.000000E+000  0.155172E+000  0.217200E-004  0.000000E+000 -0.373901E-002
  0.293103E+000  0.000000E+000  0.155172E+000  0.201290E-004  0.000000E+000 -0.373041E-002
  0.327586E+000  0.000000E+000  0.155172E+000  0.172838E-004  0.000000E+000 -0.372277E-002
  0.362069E+000  0.000000E+000  0.155172E+000  0.132852E-004  0.000000E+000 -0.371659E-002
  0.396552E+000  0.000000E+000  0.155172E+000  0.830417E-005  0.000000E+000 -0.371232E-002
  0.431034E+000  0.000000E+000  0.155172E+000  0.257612E-005  0.000000E+000 -0.371033E-002
  0.465517E+000  0.000000E+000  0.155172E+000 -0.361163E-005  0.000000E+000 -0.371087E-002
  0.500000E+000  0.000000E+000  0.155172E+000 -0.993712E-005  0.000000E+000 -0.371407E-002
  0.534483E+000  0.000000E+000  0.155172E+000 -0.160669E-004  0.000000E+000 -0.371990E-002
  0.568966E+000  0.000000E+000  0.155172E+000 -0.216806E-004  0.000000E+000 -0.372821E-002
  0.603448E+000  0.000000E+000  0.155172E+000 -0.264925E-004  0.000000E+000 -0.373872E-002
  0.637931E+000  0.000000E+000  0.155172E+000 -0.302679E-004  0.000000E+000 -0.375101E-002
  0.672414E+000  0.000000E+000  0.155172E+000 -0.328347E-004  0.000000E+000 -0.376462E-002
  0.706897E+000  0.000000E+000  0.155172E+000 -0.340883E-004  0.000000E+000 -0.377900E-002
  0.741379E+000  0.000000E+000  0.155172E+000 -0.339911E-004  0.000000E+000 -0.379359E-002
  0.775862E+000  0.000000E+000  0.155172E+000 -0.325676E-004  0.000000E+000 -0.380783E-002
  0.810345E+000  0.000000E+000  0.155172E+000 -0.298968E-004  0.000000E+000 -0.382118E-002
  0.844828E+000  0.000000E+000  0.155172E+000 -0.261031E-004  0.000000E+000 -0.383313E-002
  0.879310E+000  0.000000E+000  0.155172E+000 -0.213471E-004  0.000000E+000 -0.384325E-002
  0.913793E+000  0.000000E+000  0.155172E+000 -0.158169E-004  0.000000E+000 -0.385117E-002
  0.948276E+000  0.000000E+000  0.155172E+000 -0.972041E-005  0.000000E+000 -0.385661E-002
  0.991379E+000  0.000000E+000  0.155172E+000 -0.327880E-005  0.000000E+000 -0.385938E-002
  0.172414E-001  0.000000E+000  0.189655E+000  0.332836E-005  0.000000E+000 -0.437717E-002
  0.517241E-001  0.000000E+000  0.189655E+000  0.981829E-005  0.000000E+000 -0.437525E-002
  0.862069E-001  0.000000E+000  0.189655E+000  0.158137E-004  0.000000E+000 -0.437151E-002
  0.120690E+000  0.000000E+000  0.189655E+000  0.210031E-004  0.000000E+000 -0.436614E-002
  0.155172E+000  0.000000E+000  0.189655E+000  0.251024E-004  0.000000E+000 -0.435942E-002
  0.189655E+000  0.000000E+000  0.189655E+000  0.278669E-004  0.000000E+000 -0.435170E-002
  0.224138E+000  0.000000E+000  0.189655E+000  0.291037E-004  0.000000E+000 -0.434340E-002
  0.258621E+000  0.000000E+000  0.189655E+000  0.286854E-004  0.000000E+000 -0.433500E-002
  0.293103E+000  0.000000E+000  0.189655E+000  0.265621E-004  0.000000E+000 -0.432700E-002
  0.327586E+000  0.000000E+000  0.189655E+000  0.227725E-004  0.000000E+000 -0.431989E-002
  0.362069E+000  0.000000E+000  0.189655E+000  0.174492E-004  0.000000E+000 -0.431417E-002
  0.396552E+000  0.000000E+000  0.189655E+000  0.108193E-004  0.000000E+000 -0.431025E-002
  0.431034E+000  0.000000E+000  0.189655E+000  0.319595E-005  0.000000E+000 -0.430848E-002
  0.465517E+000  0.000000E+000  0.189655E+000 -0.503721E-005  0.000000E+000 -0.430911E-002
  0.500000E+000  0.000000E+000  0.189655E+000 -0.134501E-004  0.000000E+000 -0.431225E-002
  0.534483E+000  0.000000E+000  0.189655E+000 -0.215974E-004  0.000000E+000 -0.431789E-002
  0.568966E+000  0.000000E+000  0.189655E+000 -0.290520E-004  0.000000E+000 -0.432585E-002
  0.603448E+000  0.000000E+000  0.189655E+000 -0.354332E-004  0.000000E+000 -0.433588E-002
  0.637931E+000  0.000000E+000  0.189655E+000 -0.404298E-004  0.000000E+000 -0.434758E-002
  0.672414E+000  0.000000E+000  0.189655E+000 -0.438144E-004  0.000000E+000 -0.436051E-002
  0.706897E+000  0.000000E+000  0.189655E+000 -0.454504E-004  0.000000E+000 -0.437414E-002
  0.741379E+000  0.000000E+000  0.189655E+000 -0.452903E-004  0.000000E+000 -0.438795E-002
  0.775862E+000  0.000000E+000  0.189655E+000 -0.433691E-004  0.000000E+000 -0.440140E-002
  0.810345E+000  0.000000E+000  0.189655E+000 -0.397938E-004  0.000000E+000 -0.441398E-002
  0.844828E+000  0.000000E+000  0.189655E+000 -0.347309E-004  0.000000E+000 -0.442524E-002
  0.879310E+000  0.000000E+000  0.189655E+000 -0.283944E-004  0.000000E+000 -0.443476E-002
  0.913793E+000  0.000000E+000  0.189655E+000 -0.210339E-004  0.000000E+000 -0.444221E-002
  0.948276E+000  0.000000E+000  0.189655E+000 -0.129247E-004  0.000000E+000 -0.444732E-002
  0.991379E+000  0.000000E+000  0.189655E+000 -0.435932E-005  0.000000E+000 -0.444992E-002
  0.172414E-001  0.000000E+000  0.224138E+000  0.411036E-005  0.000000E+000 -0.500207E-002
  0.517241E-001  0.000000E+000  0.224138E+000  0.121256E-004  0.000000E+000 -0.500029E-002
  0.862069E-001  0.000000E+000  0.224138E+000  0.195312E-004  0.000000E+000 -0.499681E-002
  0.120690E+000  0.000000E+000  0.224138E+000  0.259428E-004  0.000000E+000 -0.499182E-002
  0.155172E+000  0.000000E+000  0.224138E+000  0.310090E-004  0.000000E+000 -0.498555E-002
  0.189655E+000  0.000000E+000  0.224138E+000  0.344256E-004  0.000000E+000 -0.497835E-002
  0.224138E+000  0.000000E+000  0.224138E+000  0.359521E-004  0.000000E+000 -0.497061E-002
  0.258621E+000  0.000000E+000  0.224138E+000  0.354277E-004  0.000000E+000 -0.496276E-002
  0.293103E+000  0.000000E+000  0.224138E+000  0.327878E-004  0.000000E+000 -0.495527E-002
  0.327586E+000  0.000000E+000  0.224138E+000  0.280771E-004  0.000000E+000 -0.494862E-002
  0.362069E+000  0.000000E+000  0.224138E+000  0.214581E-004  0.000000E+000 -0.494326E-002
  0.396552E+000  0.000000E+000  0.224138E+000  0.132119E-004  0.000000E+000 -0.493961E-002
  0.431034E+000  0.000000E+000  0.224138E+000  0.372869E-005  0.000000E+000 -0.493800E-002
  0.465517E+000  0.000000E+000  0.224138E+000 -0.651259E-005  0.000000E+000 -0.493865E-002
  0.500000E+000  0.000000E+000  0.224138E+000 -0.169738E-004  0.000000E+000 -0.494169E-002
  0.534483E+000  0.000000E+000  0.224138E+000 -0.270979E-004  0.000000E+000 -0.494708E-002
  0.568966E+000  0.000000E+000  0.224138E+000 -0.363512E-004  0.000000E+000 -0.495468E-002
  0.603448E+000  0.000000E+000  0.224138E+000 -0.442594E-004  0.000000E+000 -0.496422E-002
  0.637931E+000  0.000000E+000  0.224138E+000 -0.504364E-004  0.000000E+000 -0.497533E-002
  0.672414E+000  0.000000E+000  0.224138E+000 -0.546025E-004  0.000000E+000 -0.498757E-002
  0.706897E+000  0.000000E+000  0.224138E+000 -0.565915E-004  0.000000E+000 -0.500045E-002
  0.741379E+000  0.000000E+000  0.224138E+000 -0.563491E-004  0.000000E+000 -0.501347E-002
  0.775862E+000  0.000000E+000  0.224138E+000 -0.539229E-004  0.000000E+000 -0.502612E-002
  0.810345E+000  0.000000E+000  0.224138E+000 -0.494493E-004  0.000000E+000 -0.503794E-002
  0.844828E+000  0.000000E+000  0.224138E+000 -0.431375E-004  0.000000E+000 -0.504850E-002
  0.879310E+000  0.000000E+000  0.224138E+000 -0.352538E-004  0.000000E+000 -0.505741E-002
  0.913793E+000  0.000000E+000  0.224138E+000 -0.261077E-004  0.000000E+000 -0.506437E-002
  0.948276E+000  0.000000E+000  0.224138E+000 -0.160393E-004  0.000000E+000 -0.506915E-002
  0.991379E+000  0.000000E+000  0.224138E+000 -0.540933E-005  0.000000E+000 -0.507158E-002
  0.172414E-001  0.000000E+000  0.258621E+000  0.484910E-005  0.000000E+000 -0.564544E-002
  0.517241E-001  0.000000E+000  0.258621E+000  0.143061E-004  0.000000E+000 -0.564377E-002
  0.862069E-001  0.000000E+000  0.258621E+000  0.230471E-004  0.000000E+000 -0.564051E-002
  0.120690E+000  0.000000E+000  0.258621E+000  0.306199E-004  0.000000E+000 -0.563582E-002
  0.155172E+000  0.000000E+000  0.258621E+000  0.366093E-004  0.000000E+000 -0.562993E-002
  0.189655E+000  0.000000E+000  0.258621E+000  0.406543E-004  0.000000E+000 -0.562315E-002
  0.224138E+000  0.000000E+000  0.258621E+000  0.424672E-004  0.000000E+000 -0.561583E-002
  0.258621E+000  0.000000E+000  0.258621E+000  0.418531E-004  0.000000E+000 -0.560839E-002
  0.293103E+000  0.000000E+000  0.258621E+000  0.387298E-004  0.000000E+000 -0.560127E-002
  0.327586E+000  0.000000E+000  0.258621E+000  0.331450E-004  0.000000E+000 -0.559493E-002
  0.362069E+000  0.000000E+000  0.258621E+000  0.252873E-004  0.000000E+000 -0.558980E-002
  0.396552E+000  0.000000E+000  0.258621E+000  0.154886E-004  0.000000E+000 -0.558629E-002
  0.431034E+000  0.000000E+000  0.258621E+000  0.421311E-005  0.000000E+000 -0.558473E-002
  0.465517E+000  0.000000E+000  0.258621E+000 -0.796609E-005  0.000000E+000 -0.558533E-002
  0.500000E+000  0.000000E+000  0.258621E+000 -0.204038E-004  0.000000E+000 -0.558823E-002
  0.534483E+000  0.000000E+000  0.258621E+000 -0.324323E-004  0.000000E+000 -0.559338E-002
  0.568966E+000  0.000000E+000  0.258621E+000 -0.434122E-004  0.000000E+000 -0.560064E-002
  0.603448E+000  0.000000E+000  0.258621E+000 -0.527777E-004  0.000000E+000 -0.560974E-002
  0.637931E+000  0.000000E+000  0.258621E+000 -0.600712E-004  0.000000E+000 -0.562033E-002
  0.672414E+000  0.000000E+000  0.258621E+000 -0.649644E-004  0.000000E+000 -0.563196E-002
  0.706897E+000  0.000000E+000  0.258621E+000 -0.672665E-004  0.000000E+000 -0.564418E-002
  0.741379E+000  0.000000E+000  0.258621E+000 -0.669200E-004  0.000000E+000 -0.565649E-002
  0.775862E+000  0.000000E+000  0.258621E+000 -0.639885E-004  0.000000E+000 -0.566843E-002
  0.810345E+000  0.000000E+000  0.258621E+000 -0.586395E-004  0.000000E+000 -0.567955E-002
  0.844828E+000  0.000000E+000  0.258621E+000 -0.511247E-004  0.000000E+000 -0.568945E-002
  0.879310E+000  0.000000E+000  0.258621E+000 -0.417614E-004  0.000000E+000 -0.569780E-002
  0.913793E+000  0.000000E+000  0.258621E+000 -0.309158E-004  0.000000E+000 -0.570431E-002
  0.948276E+000  0.000000E+000  0.258621E+000 -0.189886E-004  0.000000E+000 -0.570877E-002
  0.991379E+000  0.000000E+000  0.258621E+000 -0.640321E-005  0.000000E+000 -0.571104E-002
  0.172414E-001  0.000000E+000  0.293103E+000  0.554170E-005  0.000000E+000 -0.629677E-002
  0.517241E-001  0.000000E+000  0.293103E+000  0.163518E-004  0.000000E+000 -0.629519E-002
  0.862069E-001  0.000000E+000  0.293103E+000  0.263505E-004  0.000000E+000 -0.629208E-002
  0.120690E+000  0.000000E+000  0.293103E+000  0.350231E-004  0.000000E+000 -0.628760E-002
  0.155172E+000  0.000000E+000  0.293103E+000  0.418955E-004  0.000000E+000 -0.628196E-002
  0.189655E+000  0.000000E+000  0.293103E+000  0.465523E-004  0.000000E+000 -0.627543E-002
  0.224138E+000  0.000000E+000  0.293103E+000  0.486587E-004  0.000000E+000 -0.626836E-002
  0.258621E+000  0.000000E+000  0.293103E+000  0.479836E-004  0.000000E+000 -0.626113E-002
  0.293103E+000  0.000000E+000  0.293103E+000  0.444235E-004  0.000000E+000 -0.625416E-002
  0.327586E+000  0.000000E+000  0.293103E+000  0.380239E-004  0.000000E+000 -0.624791E-002
  0.362069E+000  0.000000E+000  0.293103E+000  0.289944E-004  0.000000E+000 -0.624282E-002
  0.396552E+000  0.000000E+000  0.293103E+000  0.177129E-004  0.000000E+000 -0.623928E-002
  0.431034E+000  0.000000E+000  0.293103E+000  0.471545E-005  0.000000E+000 -0.623763E-002
  0.465517E+000  0.000000E+000  0.293103E+000 -0.933186E-005  0.000000E+000 -0.623811E-002
  0.500000E+000  0.000000E+000  0.293103E+000 -0.236762E-004  0.000000E+000 -0.624084E-002
  0.534483E+000  0.000000E+000  0.293103E+000 -0.375377E-004  0.000000E+000 -0.624578E-002
  0.568966E+000  0.000000E+000  0.293103E+000 -0.501713E-004  0.000000E+000 -0.625279E-002
  0.603448E+000  0.000000E+000  0.293103E+000 -0.609211E-004  0.000000E+000 -0.626158E-002
  0.637931E+000  0.000000E+000  0.293103E+000 -0.692611E-004  0.000000E+000 -0.627180E-002
  0.672414E+000  0.000000E+000  0.293103E+000 -0.748200E-004  0.000000E+000 -0.628300E-002
  0.706897E+000  0.000000E+000  0.293103E+000 -0.773880E-004  0.000000E+000 -0.629472E-002
  0.741379E+000  0.000000E+000  0.293103E+000 -0.769105E-004  0.000000E+000 -0.630649E-002
  0.775862E+000  0.000000E+000  0.293103E+000 -0.734717E-004  0.000000E+000 -0.631787E-002
  0.810345E+000  0.000000E+000  0.293103E+000 -0.672728E-004  0.000000E+000 -0.632842E-002
  0.844828E+000  0.000000E+000  0.293103E+000 -0.586087E-004  0.000000E+000 -0.633779E-002
  0.879310E+000  0.000000E+000  0.293103E+000 -0.478461E-004  0.000000E+000 -0.634567E-002
  0.913793E+000  0.000000E+000  0.293103E+000 -0.354040E-004  0.000000E+000 -0.635180E-002
  0.948276E+000  0.000000E+000  0.293103E+000 -0.217385E-004  0.000000E+000 -0.635599E-002
  0.991379E+000  0.000000E+000  0.293103E+000 -0.732936E-005  0.000000E+000 -0.635812E-002
  0.172414E-001  0.000000E+000  0.327586E+000  0.619416E-005  0.000000E+000 -0.694828E-002
  0.517241E-001  0.000000E+000  0.327586E+000  0.182812E-004  0.000000E+000 -0.694674E-002
  0.862069E-001  0.000000E+000  0.327586E+000  0.294730E-004  0.000000E+000 -0.694370E-002
  0.120690E+000  0.000000E+000  0.327586E+000  0.391993E-004  0.000000E+000 -0.693931E-002
  0.155172E+000  0.000000E+000  0.327586E+000  0.469312E-004  0.000000E+000 -0.693374E-002
  0.189655E+000  0.000000E+000  0.327586E+000  0.522010E-004  0.000000E+000 -0.692727E-002
  0.224138E+000  0.000000E+000  0.327586E+000  0.546257E-004  0.000000E+000 -0.692020E-002
  0.258621E+000  0.000000E+000  0.327586E+000  0.539342E-004  0.000000E+000 -0.691292E-002
  0.293103E+000  0.000000E+000  0.327586E+000  0.499953E-004  0.000000E+000 -0.690584E-002
  0.327586E+000  0.000000E+000  0.327586E+000  0.428448E-004  0.000000E+000 -0.689941E-002
  0.362069E+000  0.000000E+000  0.327586E+000  0.327060E-004  0.000000E+000 -0.689409E-002
  0.396552E+000  0.000000E+000  0.327586E+000  0.199977E-004  0.000000E+000 -0.689031E-002
  0.431034E+000  0.000000E+000  0.327586E+000  0.532547E-005  0.000000E+000 -0.688842E-002
  0.465517E+000  0.000000E+000  0.327586E+000 -0.105495E-004  0.000000E+000 -0.688868E-002
  0.500000E+000  0.000000E+000  0.327586E+000 -0.267621E-004  0.000000E+000 -0.689123E-002
  0.534483E+000  0.000000E+000  0.327586E+000 -0.424150E-004  0.000000E+000 -0.689603E-002
  0.568966E+000  0.000000E+000  0.327586E+000 -0.566531E-004  0.000000E+000 -0.690292E-002
  0.603448E+000  0.000000E+000  0.327586E+000 -0.687294E-004  0.000000E+000 -0.691160E-002
  0.637931E+000  0.000000E+000  0.327586E+000 -0.780528E-004  0.000000E+000 -0.692168E-002
  0.672414E+000  0.000000E+000  0.327586E+000 -0.842148E-004  0.000000E+000 -0.693269E-002
  0.706897E+000  0.000000E+000  0.327586E+000 -0.869950E-004  0.000000E+000 -0.694418E-002
  0.741379E+000  0.000000E+000  0.327586E+000 -0.863501E-004  0.000000E+000 -0.695565E-002
  0.775862E+000  0.000000E+000  0.327586E+000 -0.823916E-004  0.000000E+000 -0.696668E-002
  0.810345E+000  0.000000E+000  0.327586E+000 -0.753591E-004  0.000000E+000 -0.697687E-002
  0.844828E+000  0.000000E+000  0.327586E+000 -0.655923E-004  0.000000E+000 -0.698587E-002
  0.879310E+000  0.000000E+000  0.327586E+000 -0.535060E-004  0.000000E+000 -0.699341E-002
  0.913793E+000  0.000000E+000  0.327586E+000 -0.395688E-004  0.000000E+000 -0.699925E-002
  0.948276E+000  0.000000E+000  0.327586E+000 -0.242860E-004  0.000000E+000 -0.700324E-002
  0.991379E+000  0.000000E+000  0.327586E+000 -0.818663E-005  0.000000E+000 -0.700526E-002
  0.172414E-001  0.000000E+000  0.362069E+000  0.681874E-005  0.000000E+000 -0.759452E-002
  0.517241E-001  0.000000E+000  0.362069E+000  0.201314E-004  0.000000E+000 -0.759296E-002
  0.862069E-001  0.000000E+000  0.362069E+000  0.324774E-004  0.000000E+000 -0.758990E-002
  0.120690E+000  0.000000E+000  0.362069E+000  0.432379E-004  0.000000E+000 -0.758544E-002
  0.155172E+000  0.000000E+000  0.362069E+000  0.518334E-004  0.000000E+000 -0.757977E-002
  0.189655E+000  0.000000E+000  0.362069E+000  0.577446E-004  0.000000E+000 -0.757312E-002
  0.224138E+000  0.000000E+000  0.362069E+000  0.605378E-004  0.000000E+000 -0.756579E-002
  0.258621E+000  0.000000E+000  0.362069E+000  0.598951E-004  0.000000E+000 -0.755814E-002
  0.293103E+000  0.000000E+000  0.362069E+000  0.556480E-004  0.000000E+000 -0.755061E-002
  0.327586E+000  0.000000E+000  0.362069E+000  0.478112E-004  0.000000E+000 -0.754368E-002
  0.362069E+000  0.000000E+000  0.362069E+000  0.366111E-004  0.000000E+000 -0.753782E-002
  0.396552E+000  0.000000E+000  0.362069E+000  0.225011E-004  0.000000E+000 -0.753353E-002
  0.431034E+000  0.000000E+000  0.362069E+000  0.615585E-005  0.000000E+000 -0.753120E-002
  0.465517E+000  0.000000E+000  0.362069E+000 -0.115625E-004  0.000000E+000 -0.753115E-002
  0.500000E+000  0.000000E+000  0.362069E+000 -0.296650E-004  0.000000E+000 -0.753352E-002
  0.534483E+000  0.000000E+000  0.362069E+000 -0.471234E-004  0.000000E+000 -0.753828E-002
  0.568966E+000  0.000000E+000  0.362069E+000 -0.629620E-004  0.000000E+000 -0.754525E-002
  0.603448E+000  0.000000E+000  0.362069E+000 -0.763377E-004  0.000000E+000 -0.755408E-002
  0.637931E+000  0.000000E+000  0.362069E+000 -0.865963E-004  0.000000E+000 -0.756432E-002
  0.672414E+000  0.000000E+000  0.362069E+000 -0.933004E-004  0.000000E+000 -0.757548E-002
  0.706897E+000  0.000000E+000  0.362069E+000 -0.962301E-004  0.000000E+000 -0.758704E-002
  0.741379E+000  0.000000E+000  0.362069E+000 -0.953652E-004  0.000000E+000 -0.759853E-002
  0.775862E+000  0.000000E+000  0.362069E+000 -0.908552E-004  0.000000E+000 -0.760949E-002
  0.810345E+000  0.000000E+000  0.362069E+000 -0.829849E-004  0.000000E+000 -0.761954E-002
  0.844828E+000  0.000000E+000  0.362069E+000 -0.721425E-004  0.000000E+000 -0.762838E-002
  0.879310E+000  0.000000E+000  0.362069E+000 -0.587907E-004  0.000000E+000 -0.763573E-002
  0.913793E+000  0.000000E+000  0.362069E+000 -0.434438E-004  0.000000E+000 -0.764141E-002
  0.948276E+000  0.000000E+000  0.362069E+000 -0.266506E-004  0.000000E+000 -0.764527E-002
  0.991379E+000  0.000000E+000  0.362069E+000 -0.898137E-005  0.000000E+000 -0.764723E-002
  0.172414E-001  0.000000E+000  0.396552E+000  0.743162E-005  0.000000E+000 -0.823205E-002
  0.517241E-001  0.000000E+000  0.396552E+000  0.219512E-004  0.000000E+000 -0.823044E-002
  0.862069E-001  0.000000E+000  0.396552E+000  0.354465E-004  0.000000E+000 -0.822725E-002
  0.120690E+000  0.000000E+000  0.396552E+000  0.472567E-004  0.000000E+000 -0.822259E-002
  0.155172E+000  0.000000E+000  0.396552E+000  0.567559E-004  0.000000E+000 -0.821660E-002
  0.189655E+000  0.000000E+000  0.396552E+000  0.633733E-004  0.000000E+000 -0.820951E-002
  0.224138E+000  0.000000E+000  0.396552E+000  0.666192E-004  0.000000E+000 -0.820161E-002
  0.258621E+000  0.000000E+000  0.396552E+000  0.661188E-004  0.000000E+000 -0.819325E-002