title = "dataset transp-updrld"
variables = "time", "absolute mass balance error", "relative mass balance error", "absolute cumulative mass balance error", "relative cumulative mass balance error" 
zone t = "mass balance error -  variably saturated flow", f=point
  1.0000E-10  6.6404E-15  3.9724E-15  6.6404E-15  3.9724E-15
  6.0000E-10  3.0618E-14  1.8316E-14  3.7258E-14  2.2288E-14
  3.1000E-09  1.5223E-13  9.1065E-14  1.8949E-13  1.1335E-13
  1.5600E-08  1.4006E-15  8.3786E-16  1.9089E-13  1.1419E-13
  7.8100E-08  9.7334E-16  5.8227E-16  1.9186E-13  1.1477E-13
  3.9060E-07  1.4212E-15  8.5016E-16  1.9328E-13  1.1562E-13
  1.9531E-06  2.1475E-16  1.2847E-16  1.9350E-13  1.1575E-13
  9.7656E-06 -2.4337E-14 -1.4559E-14  1.6916E-13  1.0119E-13
  4.8828E-05  2.0037E-16  1.1987E-16  1.6936E-13  1.0131E-13
  2.4414E-04 -2.0769E-16 -1.2424E-16  1.6915E-13  1.0119E-13
  1.2207E-03 -2.8584E-14 -1.7098E-14  1.4057E-13  8.4084E-14
  6.1035E-03  8.8938E-16  5.3188E-16  1.4146E-13  8.4595E-14
  3.0518E-02 -4.0986E-12 -2.4480E-12 -3.9572E-12 -2.3635E-12
  1.5259E-01 -3.9695E-09 -2.3560E-09 -3.9734E-09 -2.3584E-09
  5.8163E-01  6.3961E-08  3.7146E-08  5.9987E-08  3.4838E-08
  1.0000E+00  3.0127E-08  1.7137E-08  9.0115E-08  5.1259E-08
  2.0000E+00  1.2986E+00  7.5854E-01  1.2986E+00  7.5854E-01
  2.5975E+00 -8.1789E-08 -4.6140E-08  1.2986E+00  7.3258E-01
  3.0000E+00  2.5548E-08  1.4075E-08  1.2986E+00  7.1541E-01
  4.0000E+00 -5.2554E-07 -2.9139E-07  1.2986E+00  7.2003E-01
  5.0000E+00 -1.3659E-07 -7.6174E-08  1.2986E+00  7.2419E-01
  6.0000E+00 -2.1373E-07 -1.1984E-07  1.2986E+00  7.2815E-01
  7.0000E+00 -5.2108E-07 -2.9376E-07  1.2986E+00  7.3209E-01
  8.0000E+00 -6.2192E-07 -3.5252E-07  1.2986E+00  7.3608E-01
  9.0000E+00 -4.3996E-07 -2.5076E-07  1.2986E+00  7.4014E-01
  1.0000E+01 -6.6908E-07 -3.8346E-07  1.2986E+00  7.4424E-01
  1.1000E+01 -3.9753E-07 -2.2909E-07  1.2986E+00  7.4836E-01
  1.2000E+01 -4.9065E-07 -2.8431E-07  1.2986E+00  7.5247E-01
  1.3000E+01 -3.2042E-07 -1.8667E-07  1.2986E+00  7.5654E-01
  1.4000E+01 -3.2418E-07 -1.8986E-07  1.2986E+00  7.6055E-01
  1.5000E+01 -6.3377E-07 -3.7310E-07  1.2986E+00  7.6450E-01
  1.6000E+01 -6.4920E-07 -3.8412E-07  1.2986E+00  7.6836E-01
  1.7000E+01 -7.1156E-07 -4.2310E-07  1.2986E+00  7.7215E-01
  1.8000E+01 -5.2383E-07 -3.1297E-07  1.2986E+00  7.7586E-01
  1.9000E+01 -4.4397E-07 -2.6649E-07  1.2986E+00  7.7948E-01
  2.0000E+01 -3.3912E-07 -2.0448E-07  1.2986E+00  7.8302E-01
  2.1000E+01 -3.8631E-07 -2.3182E-07  1.2986E+00  7.7928E-01
  2.2000E+01 -4.7786E-08 -2.8798E-08  1.2986E+00  7.8260E-01
  2.3000E+01 -1.4753E-07 -8.9280E-08  1.2986E+00  7.8585E-01
  2.4000E+01 -1.1435E-07 -6.7628E-08  1.2986E+00  7.6798E-01
  2.5000E+01 -2.2891E-07 -1.3590E-07  1.2986E+00  7.7097E-01
  2.6000E+01 -2.1908E-07 -1.2435E-07  1.2986E+00  7.3708E-01
  2.7000E+01 -1.4678E-07 -7.5495E-08  1.2986E+00  6.6794E-01
  2.8000E+01 -9.9381E-07 -4.6781E-07  1.2986E+00  6.1128E-01
  2.9000E+01 -1.1246E-05 -5.1389E-06  1.2986E+00  5.9341E-01
  3.0000E+01 -4.6214E-06 -1.9725E-06  1.2986E+00  5.5424E-01
  3.1000E+01 -4.4851E-06 -1.9291E-06  1.2986E+00  5.5852E-01
  3.2000E+01 -7.9380E-08 -3.4543E-08  1.2986E+00  5.6509E-01
  3.3000E+01 -1.2816E-06 -5.7252E-07  1.2986E+00  5.8010E-01
  3.4000E+01 -5.6744E-06 -2.5483E-06  1.2986E+00  5.8317E-01
  3.5000E+01 -7.0448E-06 -3.2234E-06  1.2986E+00  5.9417E-01
  3.6000E+01 -2.8609E-06 -1.3375E-06  1.2986E+00  6.0710E-01
  3.7000E+01 -1.5060E-06 -7.1812E-07  1.2986E+00  6.1922E-01
  3.8000E+01 -2.9593E-07 -1.4369E-07  1.2986E+00  6.3050E-01
  3.9000E+01  1.1673E-06  5.7621E-07  1.2986E+00  6.4099E-01
  4.0000E+01  1.7137E-06  8.5884E-07  1.2986E+00  6.5077E-01
  4.1000E+01 -5.3387E-09 -2.7130E-09  1.2986E+00  6.5991E-01
  4.2000E+01 -1.4375E-06 -7.4001E-07  1.2986E+00  6.6847E-01
  4.3000E+01  1.2742E-06  6.6383E-07  1.2986E+00  6.7653E-01
  4.4000E+01  9.1135E-07  4.8014E-07  1.2986E+00  6.8413E-01
  4.5000E+01 -1.0404E-07 -5.5391E-08  1.2986E+00  6.9133E-01
  4.6000E+01 -8.1171E-08 -4.3641E-08  1.2986E+00  6.9816E-01
  4.7000E+01 -1.0696E-06 -5.7941E-07  1.2986E+00  7.0344E-01
  4.8000E+01 -2.1428E-07 -1.1043E-07  1.2986E+00  6.6921E-01
  4.9000E+01 -1.8161E-06 -9.0729E-07  1.2986E+00  6.4873E-01
  5.0000E+01 -1.6738E-06 -8.3625E-07  1.2986E+00  6.4877E-01
  5.1000E+01 -1.9402E-06 -9.4932E-07  1.2986E+00  6.3537E-01
  5.2000E+01 -2.4977E-06 -1.2331E-06  1.2985E+00  6.4107E-01
  5.3000E+01 -1.8763E-06 -9.0714E-07  1.2985E+00  6.2781E-01
  5.4000E+01 -2.1192E-06 -1.0377E-06  1.2985E+00  6.3585E-01
  5.5000E+01 -1.9872E-06 -9.8594E-07  1.2985E+00  6.4427E-01
  5.6000E+01 -2.5495E-08 -1.2817E-08  1.2985E+00  6.5279E-01
  5.7000E+01 -9.4912E-07 -4.8325E-07  1.2985E+00  6.6116E-01
  5.8000E+01 -2.2285E-06 -1.1485E-06  1.2985E+00  6.6926E-01
  5.9000E+01 -1.0028E-06 -5.2286E-07  1.2985E+00  6.7703E-01
  6.0000E+01 -5.2378E-07 -2.7275E-07  1.2985E+00  6.7620E-01
  6.1000E+01 -9.6189E-07 -4.9129E-07  1.2985E+00  6.6324E-01
  6.2000E+01 -2.0546E-06 -1.0600E-06  1.2985E+00  6.6991E-01
  6.3000E+01 -1.2566E-06 -6.5474E-07  1.2985E+00  6.7660E-01
  6.4000E+01  2.4655E-07  1.1380E-07  1.2985E+00  5.9938E-01
  6.4692E+01 -6.8008E-07 -3.1426E-07  1.2985E+00  6.0004E-01
  6.5000E+01 -3.4112E-07 -1.5776E-07  1.2985E+00  6.0052E-01
  6.6000E+01 -1.1118E-05 -4.4831E-06  1.2985E+00  5.2359E-01
  6.6805E+01 -6.4798E-07 -2.6694E-07  1.2985E+00  5.3493E-01
  6.7000E+01 -1.0717E-06 -4.4399E-07  1.2985E+00  5.3797E-01
  6.7976E+01 -3.5004E-06 -1.4986E-06  1.2985E+00  5.5591E-01
  6.8000E+01 -2.6887E-08 -1.1520E-08  1.2985E+00  5.5638E-01
  6.8122E+01 -1.1322E-06 -4.8565E-07  1.2985E+00  5.5698E-01
  6.8734E+01 -4.6978E-06 -2.0237E-06  1.2985E+00  5.5935E-01
  6.9000E+01 -8.9283E-07 -3.8523E-07  1.2985E+00  5.6026E-01
  7.0000E+01 -7.9538E-06 -3.5309E-06  1.2985E+00  5.7644E-01
  7.1000E+01 -6.4031E-07 -2.9165E-07  1.2985E+00  5.9144E-01
  7.2000E+01 -5.7242E-06 -2.6680E-06  1.2985E+00  6.0521E-01
  7.3000E+01 -4.3320E-07 -2.0611E-07  1.2985E+00  6.1782E-01
  7.4000E+01 -2.5056E-06 -1.1848E-06  1.2985E+00  6.1401E-01
  7.5000E+01 -1.8841E-06 -9.0629E-07  1.2985E+00  6.2459E-01
  7.6000E+01 -5.8117E-07 -2.8417E-07  1.2985E+00  6.3490E-01
  7.7000E+01 -1.2229E-06 -6.0717E-07  1.2985E+00  6.4472E-01
  7.8000E+01  4.5728E-07  2.3032E-07  1.2985E+00  6.5402E-01
  7.9000E+01 -1.3607E-06 -6.9207E-07  1.2985E+00  6.6041E-01
  8.0000E+01 -4.7592E-07 -2.4509E-07  1.2985E+00  6.6870E-01
  8.1000E+01 -8.6017E-07 -4.4818E-07  1.2985E+00  6.7656E-01
  8.2000E+01 -5.9896E-07 -3.1553E-07  1.2985E+00  6.8404E-01
  8.3000E+01 -3.7796E-07 -2.0118E-07  1.2985E+00  6.9116E-01
  8.4000E+01 -4.6496E-07 -2.4992E-07  1.2985E+00  6.9794E-01
  8.5000E+01 -4.0318E-07 -2.1872E-07  1.2985E+00  7.0441E-01
  8.6000E+01 -3.3116E-07 -1.8123E-07  1.2985E+00  7.1059E-01
  8.7000E+01 -8.5568E-08 -4.7217E-08  1.2985E+00  7.1651E-01
  8.8000E+01 -1.3458E-07 -7.4847E-08  1.2985E+00  7.2218E-01
  8.9000E+01 -2.4933E-08 -1.3972E-08  1.2985E+00  7.2763E-01
  9.0000E+01 -9.8194E-07 -5.5421E-07  1.2985E+00  7.3286E-01
  9.1000E+01 -4.4025E-07 -2.5019E-07  1.2985E+00  7.3791E-01
  9.2000E+01 -1.8986E-06 -1.0860E-06  1.2985E+00  7.4276E-01
  9.3000E+01  2.8018E-07  1.6128E-07  1.2985E+00  7.4746E-01
  9.4000E+01 -1.1403E-06 -6.6040E-07  1.2985E+00  7.5199E-01
  9.5000E+01 -9.1351E-07 -5.3212E-07  1.2985E+00  7.5637E-01
  9.6000E+01 -7.3126E-07 -4.2836E-07  1.2985E+00  7.6062E-01
  9.7000E+01 -1.8381E-07 -1.0344E-07  1.2985E+00  7.3069E-01
  9.8000E+01 -7.5296E-07 -4.1273E-07  1.2985E+00  7.1176E-01
  9.9000E+01 -5.1358E-07 -2.8037E-07  1.2985E+00  7.0887E-01
  1.0000E+02 -2.3886E-07 -1.3045E-07  1.2985E+00  7.0915E-01
  1.0100E+02 -3.9522E-07 -2.1703E-07  1.2985E+00  7.1304E-01
  1.0200E+02 -6.0326E-07 -3.3320E-07  1.2985E+00  7.1719E-01
  1.0300E+02 -1.9064E-07 -1.0594E-07  1.2985E+00  7.2154E-01
  1.0400E+02 -4.9330E-07 -2.7583E-07  1.2985E+00  7.2605E-01
  1.0500E+02 -4.9926E-07 -2.8093E-07  1.2985E+00  7.3063E-01
  1.0600E+02 -6.3768E-07 -3.6108E-07  1.2985E+00  7.3524E-01
  1.0700E+02 -1.7934E-07 -9.5403E-08  1.2985E+00  6.9074E-01
  1.0799E+02 -1.9179E-07 -1.0264E-07  1.2985E+00  6.9489E-01
  1.0800E+02 -1.4997E-11 -8.0263E-12  1.2985E+00  6.9492E-01
  1.0804E+02 -1.9820E-09 -1.0610E-09  1.2985E+00  6.9508E-01
  1.0823E+02 -4.3030E-08 -2.3061E-08  1.2985E+00  6.9588E-01
  1.0900E+02 -3.1764E-07 -1.7106E-07  1.2985E+00  6.9929E-01
  1.1000E+02 -3.2955E-07 -1.7866E-07  1.2985E+00  7.0396E-01
  1.1100E+02 -7.4248E-07 -4.0449E-07  1.2985E+00  7.0739E-01
  1.1200E+02 -2.9026E-07 -1.5925E-07  1.2985E+00  7.1241E-01
  1.1300E+02 -6.1144E-07 -3.3787E-07  1.2985E+00  7.1750E-01
  1.1400E+02 -6.5091E-07 -3.6223E-07  1.2985E+00  7.2259E-01
  1.1500E+02 -8.5559E-07 -4.7945E-07  1.2985E+00  7.2763E-01
  1.1600E+02 -6.1344E-07 -3.4610E-07  1.2985E+00  7.3259E-01
  1.1700E+02 -5.2094E-07 -2.9586E-07  1.2985E+00  7.3744E-01
  1.1800E+02 -3.6464E-07 -2.0842E-07  1.2985E+00  7.4216E-01
  1.1900E+02 -1.9383E-07 -1.1147E-07  1.2985E+00  7.4677E-01
  1.2000E+02 -1.2878E-07 -7.4507E-08  1.2985E+00  7.5124E-01
  1.2100E+02 -1.0340E-06 -6.0172E-07  1.2985E+00  7.5559E-01
  1.2200E+02 -9.1605E-07 -5.3604E-07  1.2985E+00  7.5982E-01
  1.2300E+02 -1.6290E-07 -9.5648E-08  1.2985E+00  7.6242E-01
  1.2400E+02 -3.6660E-07 -2.1638E-07  1.2985E+00  7.6640E-01
  1.2500E+02 -2.2620E-07 -1.3419E-07  1.2985E+00  7.7027E-01
  1.2600E+02 -1.0030E-07 -5.9790E-08  1.2985E+00  7.7404E-01
  1.2700E+02 -4.2664E-07 -2.5554E-07  1.2985E+00  7.7772E-01
  1.2800E+02 -3.7111E-07 -2.2330E-07  1.2985E+00  7.8131E-01
  1.2900E+02 -3.2124E-07 -1.9416E-07  1.2985E+00  7.8481E-01
  1.3000E+02 -2.8014E-07 -1.7006E-07  1.2985E+00  7.8822E-01
  1.3100E+02 -2.3380E-07 -1.4253E-07  1.2985E+00  7.9156E-01
  1.3200E+02 -2.0181E-07 -1.2353E-07  1.2985E+00  7.9482E-01
  1.3300E+02 -5.4572E-07 -3.3539E-07  1.2985E+00  7.9800E-01
  1.3400E+02 -3.6240E-07 -2.2043E-07  1.2985E+00  7.8978E-01
  1.3500E+02 -1.9241E-07 -1.1172E-07  1.2985E+00  7.5395E-01
  1.3600E+02 -2.1868E-07 -1.2743E-07  1.2985E+00  7.5662E-01
  1.3700E+02 -2.4721E-07 -1.4456E-07  1.2985E+00  7.5930E-01
  1.3800E+02 -2.2825E-07 -1.3395E-07  1.2985E+00  7.6203E-01
  1.3850E+02 -1.0786E-07 -5.7825E-08  1.2985E+00  6.9614E-01
  1.3882E+02  2.6645E-06  1.3529E-06  1.2985E+00  6.5931E-01
  1.3900E+02  5.6805E-07  2.8031E-07  1.2985E+00  6.4075E-01
  1.3975E+02  6.5181E-07  3.2249E-07  1.2985E+00  6.4243E-01
  1.4000E+02  3.0347E-07  1.5028E-07  1.2985E+00  6.4302E-01
  1.4100E+02 -9.5062E-07 -4.7317E-07  1.2985E+00  6.4630E-01
  1.4200E+02 -1.6837E-07 -8.4476E-08  1.2985E+00  6.5147E-01
  1.4300E+02 -1.7034E-06 -8.6301E-07  1.2985E+00  6.5786E-01
  1.4400E+02  1.8677E-07  9.5642E-08  1.2985E+00  6.6492E-01
  1.4500E+02  8.1652E-07  4.2271E-07  1.2985E+00  6.7221E-01
  1.4600E+02 -5.6880E-07 -2.9764E-07  1.2985E+00  6.7945E-01
  1.4700E+02 -3.1354E-07 -1.6235E-07  1.2985E+00  6.7233E-01
  1.4800E+02 -6.6080E-07 -3.4558E-07  1.2985E+00  6.7907E-01
  1.4900E+02 -8.8946E-07 -4.6971E-07  1.2985E+00  6.8570E-01
  1.5000E+02 -3.3153E-07 -1.7674E-07  1.2985E+00  6.9220E-01
