title = "dataset transp-updrld"
variables = "x", "y", "z", "h_w", "p_w", "s_w", "theta_a", "s_a", "theta_g", "q_root"
zone t = "Flow variables, solution time =  1.000E+01 days        " i =   30, j =   30, k =    1,  f=point
  0.000000E+000  0.000000E+000  0.000000E+000 -0.100000E+003 -0.100000E+003  0.214462E+000  0.115809E+000  0.785538E+000  0.424191E+000  0.000000E+000
  0.344828E-001  0.000000E+000  0.000000E+000 -0.100000E+003 -0.100000E+003  0.214462E+000  0.115809E+000  0.785538E+000  0.424191E+000  0.000000E+000
  0.689655E-001  0.000000E+000  0.000000E+000 -0.100000E+003 -0.100000E+003  0.214462E+000  0.115809E+000  0.785538E+000  0.424191E+000  0.000000E+000
  0.103448E+000  0.000000E+000  0.000000E+000 -0.100000E+003 -0.100000E+003  0.214462E+000  0.115809E+000  0.785538E+000  0.424191E+000  0.000000E+000
  0.137931E+000  0.000000E+000  0.000000E+000 -0.100000E+003 -0.100000E+003  0.214462E+000  0.115809E+000  0.785538E+000  0.424191E+000  0.000000E+000
  0.172414E+000  0.000000E+000  0.000000E+000 -0.100000E+003 -0.100000E+003  0.214462E+000  0.115809E+000  0.785538E+000  0.424191E+000  0.000000E+000
  0.206897E+000  0.000000E+000  0.000000E+000 -0.100000E+003 -0.100000E+003  0.214462E+000  0.115809E+000  0.785538E+000  0.424191E+000  0.000000E+000
  0.241379E+000  0.000000E+000  0.000000E+000 -0.100000E+003 -0.100000E+003  0.214462E+000  0.115809E+000  0.785538E+000  0.424191E+000  0.000000E+000
  0.275862E+000  0.000000E+000  0.000000E+000 -0.100000E+003 -0.100000E+003  0.214462E+000  0.115809E+000  0.785538E+000  0.424191E+000  0.000000E+000
  0.310345E+000  0.000000E+000  0.000000E+000 -0.100000E+003 -0.100000E+003  0.214462E+000  0.115809E+000  0.785538E+000  0.424191E+000  0.000000E+000
  0.344828E+000  0.000000E+000  0.000000E+000 -0.100000E+003 -0.100000E+003  0.214462E+000  0.115809E+000  0.785538E+000  0.424191E+000  0.000000E+000
  0.379310E+000  0.000000E+000  0.000000E+000 -0.100000E+003 -0.100000E+003  0.214462E+000  0.115809E+000  0.785538E+000  0.424191E+000  0.000000E+000
  0.413793E+000  0.000000E+000  0.000000E+000 -0.100000E+003 -0.100000E+003  0.214462E+000  0.115809E+000  0.785538E+000  0.424191E+000  0.000000E+000
  0.448276E+000  0.000000E+000  0.000000E+000 -0.100000E+003 -0.100000E+003  0.214462E+000  0.115809E+000  0.785538E+000  0.424191E+000  0.000000E+000
  0.482759E+000  0.000000E+000  0.000000E+000 -0.100000E+003 -0.100000E+003  0.214462E+000  0.115809E+000  0.785538E+000  0.424191E+000  0.000000E+000
  0.517241E+000  0.000000E+000  0.000000E+000 -0.100000E+003 -0.100000E+003  0.214462E+000  0.115809E+000  0.785538E+000  0.424191E+000  0.000000E+000
  0.551724E+000  0.000000E+000  0.000000E+000 -0.100000E+003 -0.100000E+003  0.214462E+000  0.115809E+000  0.785538E+000  0.424191E+000  0.000000E+000
  0.586207E+000  0.000000E+000  0.000000E+000 -0.100000E+003 -0.100000E+003  0.214462E+000  0.115809E+000  0.785538E+000  0.424191E+000  0.000000E+000
  0.620690E+000  0.000000E+000  0.000000E+000 -0.100000E+003 -0.100000E+003  0.214462E+000  0.115809E+000  0.785538E+000  0.424191E+000  0.000000E+000
  0.655172E+000  0.000000E+000  0.000000E+000 -0.100000E+003 -0.100000E+003  0.214462E+000  0.115809E+000  0.785538E+000  0.424191E+000  0.000000E+000
  0.689655E+000  0.000000E+000  0.000000E+000 -0.100000E+003 -0.100000E+003  0.214462E+000  0.115809E+000  0.785538E+000  0.424191E+000  0.000000E+000
  0.724138E+000  0.000000E+000  0.000000E+000 -0.100000E+003 -0.100000E+003  0.214462E+000  0.115809E+000  0.785538E+000  0.424191E+000  0.000000E+000
  0.758621E+000  0.000000E+000  0.000000E+000 -0.100000E+003 -0.100000E+003  0.214462E+000  0.115809E+000  0.785538E+000  0.424191E+000  0.000000E+000
  0.793103E+000  0.000000E+000  0.000000E+000 -0.100000E+003 -0.100000E+003  0.214462E+000  0.115809E+000  0.785538E+000  0.424191E+000  0.000000E+000
  0.827586E+000  0.000000E+000  0.000000E+000 -0.100000E+003 -0.100000E+003  0.214462E+000  0.115809E+000  0.785538E+000  0.424191E+000  0.000000E+000
  0.862069E+000  0.000000E+000  0.000000E+000 -0.100000E+003 -0.100000E+003  0.214462E+000  0.115809E+000  0.785538E+000  0.424191E+000  0.000000E+000
  0.896552E+000  0.000000E+000  0.000000E+000 -0.100000E+003 -0.100000E+003  0.214462E+000  0.115809E+000  0.785538E+000  0.424191E+000  0.000000E+000
  0.931034E+000  0.000000E+000  0.000000E+000 -0.100000E+003 -0.100000E+003  0.214462E+000  0.115809E+000  0.785538E+000  0.424191E+000  0.000000E+000
  0.965517E+000  0.000000E+000  0.000000E+000 -0.100000E+003 -0.100000E+003  0.214462E+000  0.115809E+000  0.785538E+000  0.424191E+000  0.000000E+000
  0.100000E+001  0.000000E+000  0.000000E+000 -0.100000E+003 -0.100000E+003  0.214462E+000  0.115809E+000  0.785538E+000  0.424191E+000  0.000000E+000
  0.000000E+000  0.000000E+000  0.344828E-001 -0.367252E+002 -0.367597E+002  0.262784E+000  0.141903E+000  0.737216E+000  0.398097E+000  0.000000E+000
  0.344828E-001  0.000000E+000  0.344828E-001 -0.367252E+002 -0.367597E+002  0.262784E+000  0.141903E+000  0.737216E+000  0.398097E+000  0.000000E+000
  0.689655E-001  0.000000E+000  0.344828E-001 -0.367252E+002 -0.367597E+002  0.262784E+000  0.141903E+000  0.737216E+000  0.398097E+000  0.000000E+000
  0.103448E+000  0.000000E+000  0.344828E-001 -0.367252E+002 -0.367597E+002  0.262784E+000  0.141903E+000  0.737216E+000  0.398097E+000  0.000000E+000
  0.137931E+000  0.000000E+000  0.344828E-001 -0.367252E+002 -0.367597E+002  0.262784E+000  0.141903E+000  0.737216E+000  0.398097E+000  0.000000E+000
  0.172414E+000  0.000000E+000  0.344828E-001 -0.367252E+002 -0.367597E+002  0.262784E+000  0.141903E+000  0.737216E+000  0.398097E+000  0.000000E+000
  0.206897E+000  0.000000E+000  0.344828E-001 -0.367252E+002 -0.367597E+002  0.262784E+000  0.141903E+000  0.737216E+000  0.398097E+000  0.000000E+000
  0.241379E+000  0.000000E+000  0.344828E-001 -0.367252E+002 -0.367597E+002  0.262784E+000  0.141903E+000  0.737216E+000  0.398097E+000  0.000000E+000
  0.275862E+000  0.000000E+000  0.344828E-001 -0.367252E+002 -0.367597E+002  0.262784E+000  0.141903E+000  0.737216E+000  0.398097E+000  0.000000E+000
  0.310345E+000  0.000000E+000  0.344828E-001 -0.367252E+002 -0.367597E+002  0.262784E+000  0.141903E+000  0.737216E+000  0.398097E+000  0.000000E+000
  0.344828E+000  0.000000E+000  0.344828E-001 -0.367252E+002 -0.367597E+002  0.262784E+000  0.141903E+000  0.737216E+000  0.398097E+000  0.000000E+000
  0.379310E+000  0.000000E+000  0.344828E-001 -0.367252E+002 -0.367597E+002  0.262784E+000  0.141903E+000  0.737216E+000  0.398097E+000  0.000000E+000
  0.413793E+000  0.000000E+000  0.344828E-001 -0.367252E+002 -0.367597E+002  0.262784E+000  0.141903E+000  0.737216E+000  0.398097E+000  0.000000E+000
  0.448276E+000  0.000000E+000  0.344828E-001 -0.367252E+002 -0.367597E+002  0.262784E+000  0.141903E+000  0.737216E+000  0.398097E+000  0.000000E+000
  0.482759E+000  0.000000E+000  0.344828E-001 -0.367252E+002 -0.367597E+002  0.262784E+000  0.141903E+000  0.737216E+000  0.398097E+000  0.000000E+000
  0.517241E+000  0.000000E+000  0.344828E-001 -0.367252E+002 -0.367597E+002  0.262784E+000  0.141903E+000  0.737216E+000  0.398097E+000  0.000000E+000
  0.551724E+000  0.000000E+000  0.344828E-001 -0.367252E+002 -0.367597E+002  0.262784E+000  0.141903E+000  0.737216E+000  0.398097E+000  0.000000E+000
  0.586207E+000  0.000000E+000  0.344828E-001 -0.367252E+002 -0.367597E+002  0.262784E+000  0.141903E+000  0.737216E+000  0.398097E+000  0.000000E+000
  0.620690E+000  0.000000E+000  0.344828E-001 -0.367252E+002 -0.367597E+002  0.262784E+000  0.141903E+000  0.737216E+000  0.398097E+000  0.000000E+000
  0.655172E+000  0.000000E+000  0.344828E-001 -0.367252E+002 -0.367597E+002  0.262784E+000  0.141903E+000  0.737216E+000  0.398097E+000  0.000000E+000
  0.689655E+000  0.000000E+000  0.344828E-001 -0.367252E+002 -0.367597E+002  0.262784E+000  0.141903E+000  0.737216E+000  0.398097E+000  0.000000E+000
  0.724138E+000  0.000000E+000  0.344828E-001 -0.367252E+002 -0.367597E+002  0.262784E+000  0.141903E+000  0.737216E+000  0.398097E+000  0.000000E+000
  0.758621E+000  0.000000E+000  0.344828E-001 -0.367252E+002 -0.367597E+002  0.262784E+000  0.141903E+000  0.737216E+000  0.398097E+000  0.000000E+000
  0.793103E+000  0.000000E+000  0.344828E-001 -0.367252E+002 -0.367597E+002  0.262784E+000  0.141903E+000  0.737216E+000  0.398097E+000  0.000000E+000
  0.827586E+000  0.000000E+000  0.344828E-001 -0.367252E+002 -0.367597E+002  0.262784E+000  0.141903E+000  0.737216E+000  0.398097E+000  0.000000E+000
  0.862069E+000  0.000000E+000  0.344828E-001 -0.367252E+002 -0.367597E+002  0.262784E+000  0.141903E+000  0.737216E+000  0.398097E+000  0.000000E+000
  0.896552E+000  0.000000E+000  0.344828E-001 -0.367252E+002 -0.367597E+002  0.262784E+000  0.141903E+000  0.737216E+000  0.398097E+000  0.000000E+000
  0.931034E+000  0.000000E+000  0.344828E-001 -0.367252E+002 -0.367597E+002  0.262784E+000  0.141903E+000  0.737216E+000  0.398097E+000  0.000000E+000
  0.965517E+000  0.000000E+000  0.344828E-001 -0.367252E+002 -0.367597E+002  0.262784E+000  0.141903E+000  0.737216E+000  0.398097E+000  0.000000E+000
  0.100000E+001  0.000000E+000  0.344828E-001 -0.367252E+002 -0.367597E+002  0.262784E+000  0.141903E+000  0.737216E+000  0.398097E+000  0.000000E+000
  0.000000E+000  0.000000E+000  0.689655E-001 -0.232275E+002 -0.232965E+002  0.295409E+000  0.159521E+000  0.704591E+000  0.380479E+000  0.000000E+000
  0.344828E-001  0.000000E+000  0.689655E-001 -0.232275E+002 -0.232965E+002  0.295409E+000  0.159521E+000  0.704591E+000  0.380479E+000  0.000000E+000
  0.689655E-001  0.000000E+000  0.689655E-001 -0.232275E+002 -0.232965E+002  0.295409E+000  0.159521E+000  0.704591E+000  0.380479E+000  0.000000E+000
  0.103448E+000  0.000000E+000  0.689655E-001 -0.232275E+002 -0.232965E+002  0.295409E+000  0.159521E+000  0.704591E+000  0.380479E+000  0.000000E+000
  0.137931E+000  0.000000E+000  0.689655E-001 -0.232275E+002 -0.232965E+002  0.295409E+000  0.159521E+000  0.704591E+000  0.380479E+000  0.000000E+000
  0.172414E+000  0.000000E+000  0.689655E-001 -0.232275E+002 -0.232965E+002  0.295409E+000  0.159521E+000  0.704591E+000  0.380479E+000  0.000000E+000
  0.206897E+000  0.000000E+000  0.689655E-001 -0.232275E+002 -0.232965E+002  0.295409E+000  0.159521E+000  0.704591E+000  0.380479E+000  0.000000E+000
  0.241379E+000  0.000000E+000  0.689655E-001 -0.232275E+002 -0.232965E+002  0.295409E+000  0.159521E+000  0.704591E+000  0.380479E+000  0.000000E+000
  0.275862E+000  0.000000E+000  0.689655E-001 -0.232275E+002 -0.232965E+002  0.295409E+000  0.159521E+000  0.704591E+000  0.380479E+000  0.000000E+000
  0.310345E+000  0.000000E+000  0.689655E-001 -0.232275E+002 -0.232965E+002  0.295409E+000  0.159521E+000  0.704591E+000  0.380479E+000  0.000000E+000
  0.344828E+000  0.000000E+000  0.689655E-001 -0.232275E+002 -0.232965E+002  0.295409E+000  0.159521E+000  0.704591E+000  0.380479E+000  0.000000E+000
  0.379310E+000  0.000000E+000  0.689655E-001 -0.232275E+002 -0.232965E+002  0.295409E+000  0.159521E+000  0.704591E+000  0.380479E+000  0.000000E+000
  0.413793E+000  0.000000E+000  0.689655E-001 -0.232275E+002 -0.232965E+002  0.295409E+000  0.159521E+000  0.704591E+000  0.380479E+000  0.000000E+000
  0.448276E+000  0.000000E+000  0.689655E-001 -0.232275E+002 -0.232965E+002  0.295409E+000  0.159521E+000  0.704591E+000  0.380479E+000  0.000000E+000
  0.482759E+000  0.000000E+000  0.689655E-001 -0.232275E+002 -0.232965E+002  0.295409E+000  0.159521E+000  0.704591E+000  0.380479E+000  0.000000E+000
  0.517241E+000  0.000000E+000  0.689655E-001 -0.232275E+002 -0.232965E+002  0.295409E+000  0.159521E+000  0.704591E+000  0.380479E+000  0.000000E+000
  0.551724E+000  0.000000E+000  0.689655E-001 -0.232275E+002 -0.232965E+002  0.295409E+000  0.159521E+000  0.704591E+000  0.380479E+000  0.000000E+000
  0.586207E+000  0.000000E+000  0.689655E-001 -0.232275E+002 -0.232965E+002  0.295409E+000  0.159521E+000  0.704591E+000  0.380479E+000  0.000000E+000
  0.620690E+000  0.000000E+000  0.689655E-001 -0.232275E+002 -0.232965E+002  0.295409E+000  0.159521E+000  0.704591E+000  0.380479E+000  0.000000E+000
  0.655172E+000  0.000000E+000  0.689655E-001 -0.232275E+002 -0.232965E+002  0.295409E+000  0.159521E+000  0.704591E+000  0.380479E+000  0.000000E+000
  0.689655E+000  0.000000E+000  0.689655E-001 -0.232275E+002 -0.232965E+002  0.295409E+000  0.159521E+000  0.704591E+000  0.380479E+000  0.000000E+000
  0.724138E+000  0.000000E+000  0.689655E-001 -0.232275E+002 -0.232965E+002  0.295409E+000  0.159521E+000  0.704591E+000  0.380479E+000  0.000000E+000
  0.758621E+000  0.000000E+000  0.689655E-001 -0.232275E+002 -0.232965E+002  0.295409E+000  0.159521E+000  0.704591E+000  0.380479E+000  0.000000E+000
  0.793103E+000  0.000000E+000  0.689655E-001 -0.232275E+002 -0.232965E+002  0.295409E+000  0.159521E+000  0.704591E+000  0.380479E+000  0.000000E+000
  0.827586E+000  0.000000E+000  0.689655E-001 -0.232275E+002 -0.232965E+002  0.295409E+000  0.159521E+000  0.704591E+000  0.380479E+000  0.000000E+000
  0.862069E+000  0.000000E+000  0.689655E-001 -0.232275E+002 -0.232965E+002  0.295409E+000  0.159521E+000  0.704591E+000  0.380479E+000  0.000000E+000
  0.896552E+000  0.000000E+000  0.689655E-001 -0.232275E+002 -0.232965E+002  0.295409E+000  0.159521E+000  0.704591E+000  0.380479E+000  0.000000E+000
  0.931034E+000  0.000000E+000  0.689655E-001 -0.232275E+002 -0.232965E+002  0.295409E+000  0.159521E+000  0.704591E+000  0.380479E+000  0.000000E+000
  0.965517E+000  0.000000E+000  0.689655E-001 -0.232275E+002 -0.232965E+002  0.295409E+000  0.159521E+000  0.704591E+000  0.380479E+000  0.000000E+000
  0.100000E+001  0.000000E+000  0.689655E-001 -0.232275E+002 -0.232965E+002  0.295409E+000  0.159521E+000  0.704591E+000  0.380479E+000  0.000000E+000
  0.000000E+000  0.000000E+000  0.103448E+000 -0.177430E+002 -0.178464E+002  0.318585E+000  0.172036E+000  0.681415E+000  0.367964E+000  0.000000E+000
  0.344828E-001  0.000000E+000  0.103448E+000 -0.177430E+002 -0.178464E+002  0.318585E+000  0.172036E+000  0.681415E+000  0.367964E+000  0.000000E+000
  0.689655E-001  0.000000E+000  0.103448E+000 -0.177430E+002 -0.178464E+002  0.318585E+000  0.172036E+000  0.681415E+000  0.367964E+000  0.000000E+000
  0.103448E+000  0.000000E+000  0.103448E+000 -0.177430E+002 -0.178464E+002  0.318585E+000  0.172036E+000  0.681415E+000  0.367964E+000  0.000000E+000
  0.137931E+000  0.000000E+000  0.103448E+000 -0.177430E+002 -0.178464E+002  0.318585E+000  0.172036E+000  0.681415E+000  0.367964E+000  0.000000E+000
  0.172414E+000  0.000000E+000  0.103448E+000 -0.177430E+002 -0.178464E+002  0.318585E+000  0.172036E+000  0.681415E+000  0.367964E+000  0.000000E+000
  0.206897E+000  0.000000E+000  0.103448E+000 -0.177430E+002 -0.178464E+002  0.318585E+000  0.172036E+000  0.681415E+000  0.367964E+000  0.000000E+000
  0.241379E+000  0.000000E+000  0.103448E+000 -0.177430E+002 -0.178464E+002  0.318585E+000  0.172036E+000  0.681415E+000  0.367964E+000  0.000000E+000
  0.275862E+000  0.000000E+000  0.103448E+000 -0.177430E+002 -0.178464E+002  0.318585E+000  0.172036E+000  0.681415E+000  0.367964E+000  0.000000E+000
  0.310345E+000  0.000000E+000  0.103448E+000 -0.177430E+002 -0.178464E+002  0.318585E+000  0.172036E+000  0.681415E+000  0.367964E+000  0.000000E+000
  0.344828E+000  0.000000E+000  0.103448E+000 -0.177430E+002 -0.178464E+002  0.318585E+000  0.172036E+000  0.681415E+000  0.367964E+000  0.000000E+000
  0.379310E+000  0.000000E+000  0.103448E+000 -0.177430E+002 -0.178464E+002  0.318585E+000  0.172036E+000  0.681415E+000  0.367964E+000  0.000000E+000
  0.413793E+000  0.000000E+000  0.103448E+000 -0.177430E+002 -0.178464E+002  0.318585E+000  0.172036E+000  0.681415E+000  0.367964E+000  0.000000E+000
  0.448276E+000  0.000000E+000  0.103448E+000 -0.177430E+002 -0.178464E+002  0.318585E+000  0.172036E+000  0.681415E+000  0.367964E+000  0.000000E+000
  0.482759E+000  0.000000E+000  0.103448E+000 -0.177430E+002 -0.178464E+002  0.318585E+000  0.172036E+000  0.681415E+000  0.367964E+000  0.000000E+000
  0.517241E+000  0.000000E+000  0.103448E+000 -0.177430E+002 -0.178464E+002  0.318585E+000  0.172036E+000  0.681415E+000  0.367964E+000  0.000000E+000
  0.551724E+000  0.000000E+000  0.103448E+000 -0.177430E+002 -0.178464E+002  0.318585E+000  0.172036E+000  0.681415E+000  0.367964E+000  0.000000E+000
  0.586207E+000  0.000000E+000  0.103448E+000 -0.177430E+002 -0.178464E+002  0.318585E+000  0.172036E+000  0.681415E+000  0.367964E+000  0.000000E+000
  0.620690E+000  0.000000E+000  0.103448E+000 -0.177430E+002 -0.178464E+002  0.318585E+000  0.172036E+000  0.681415E+000  0.367964E+000  0.000000E+000
  0.655172E+000  0.000000E+000  0.103448E+000 -0.177430E+002 -0.178464E+002  0.318585E+000  0.172036E+000  0.681415E+000  0.367964E+000  0.000000E+000
  0.689655E+000  0.000000E+000  0.103448E+000 -0.177430E+002 -0.178464E+002  0.318585E+000  0.172036E+000  0.681415E+000  0.367964E+000  0.000000E+000
  0.724138E+000  0.000000E+000  0.103448E+000 -0.177430E+002 -0.178464E+002  0.318585E+000  0.172036E+000  0.681415E+000  0.367964E+000  0.000000E+000
  0.758621E+000  0.000000E+000  0.103448E+000 -0.177430E+002 -0.178464E+002  0.318585E+000  0.172036E+000  0.681415E+000  0.367964E+000  0.000000E+000
  0.793103E+000  0.000000E+000  0.103448E+000 -0.177430E+002 -0.178464E+002  0.318585E+000  0.172036E+000  0.681415E+000  0.367964E+000  0.000000E+000
  0.827586E+000  0.000000E+000  0.103448E+000 -0.177430E+002 -0.178464E+002  0.318585E+000  0.172036E+000  0.681415E+000  0.367964E+000  0.000000E+000
  0.862069E+000  0.000000E+000  0.103448E+000 -0.177430E+002 -0.178464E+002  0.318585E+000  0.172036E+000  0.681415E+000  0.367964E+000  0.000000E+000
  0.896552E+000  0.000000E+000  0.103448E+000 -0.177430E+002 -0.178464E+002  0.318585E+000  0.172036E+000  0.681415E+000  0.367964E+000  0.000000E+000
  0.931034E+000  0.000000E+000  0.103448E+000 -0.177430E+002 -0.178464E+002  0.318585E+000  0.172036E+000  0.681415E+000  0.367964E+000  0.000000E+000
  0.965517E+000  0.000000E+000  0.103448E+000 -0.177430E+002 -0.178464E+002  0.318585E+000  0.172036E+000  0.681415E+000  0.367964E+000  0.000000E+000
  0.100000E+001  0.000000E+000  0.103448E+000 -0.177430E+002 -0.178464E+002  0.318585E+000  0.172036E+000  0.681415E+000  0.367964E+000  0.000000E+000
  0.000000E+000  0.000000E+000  0.137931E+000 -0.147609E+002 -0.148988E+002  0.336280E+000  0.181591E+000  0.663720E+000  0.358409E+000  0.000000E+000
  0.344828E-001  0.000000E+000  0.137931E+000 -0.147609E+002 -0.148988E+002  0.336280E+000  0.181591E+000  0.663720E+000  0.358409E+000  0.000000E+000
  0.689655E-001  0.000000E+000  0.137931E+000 -0.147609E+002 -0.148988E+002  0.336280E+000  0.181591E+000  0.663720E+000  0.358409E+000  0.000000E+000
  0.103448E+000  0.000000E+000  0.137931E+000 -0.147609E+002 -0.148988E+002  0.336280E+000  0.181591E+000  0.663720E+000  0.358409E+000  0.000000E+000
  0.137931E+000  0.000000E+000  0.137931E+000 -0.147609E+002 -0.148988E+002  0.336280E+000  0.181591E+000  0.663720E+000  0.358409E+000  0.000000E+000
  0.172414E+000  0.000000E+000  0.137931E+000 -0.147609E+002 -0.148988E+002  0.336280E+000  0.181591E+000  0.663720E+000  0.358409E+000  0.000000E+000
  0.206897E+000  0.000000E+000  0.137931E+000 -0.147609E+002 -0.148988E+002  0.336280E+000  0.181591E+000  0.663720E+000  0.358409E+000  0.000000E+000
  0.241379E+000  0.000000E+000  0.137931E+000 -0.147609E+002 -0.148988E+002  0.336280E+000  0.181591E+000  0.663720E+000  0.358409E+000  0.000000E+000
  0.275862E+000  0.000000E+000  0.137931E+000 -0.147609E+002 -0.148988E+002  0.336280E+000  0.181591E+000  0.663720E+000  0.358409E+000  0.000000E+000
  0.310345E+000  0.000000E+000  0.137931E+000 -0.147609E+002 -0.148988E+002  0.336280E+000  0.181591E+000  0.663720E+000  0.358409E+000  0.000000E+000
  0.344828E+000  0.000000E+000  0.137931E+000 -0.147609E+002 -0.148988E+002  0.336280E+000  0.181591E+000  0.663720E+000  0.358409E+000  0.000000E+000
  0.379310E+000  0.000000E+000  0.137931E+000 -0.147609E+002 -0.148988E+002  0.336280E+000  0.181591E+000  0.663720E+000  0.358409E+000  0.000000E+000
  0.413793E+000  0.000000E+000  0.137931E+000 -0.147609E+002 -0.148988E+002  0.336280E+000  0.181591E+000  0.663720E+000  0.358409E+000  0.000000E+000
  0.448276E+000  0.000000E+000  0.137931E+000 -0.147609E+002 -0.148988E+002  0.336280E+000  0.181591E+000  0.663720E+000  0.358409E+000  0.000000E+000
  0.482759E+000  0.000000E+000  0.137931E+000 -0.147609E+002 -0.148988E+002  0.336280E+000  0.181591E+000  0.663720E+000  0.358409E+000  0.000000E+000
  0.517241E+000  0.000000E+000  0.137931E+000 -0.147609E+002 -0.148988E+002  0.336280E+000  0.181591E+000  0.663720E+000  0.358409E+000  0.000000E+000
  0.551724E+000  0.000000E+000  0.137931E+000 -0.147609E+002 -0.148988E+002  0.336280E+000  0.181591E+000  0.663720E+000  0.358409E+000  0.000000E+000
  0.586207E+000  0.000000E+000  0.137931E+000 -0.147609E+002 -0.148988E+002  0.336280E+000  0.181591E+000  0.663720E+000  0.358409E+000  0.000000E+000
  0.620690E+000  0.000000E+000  0.137931E+000 -0.147609E+002 -0.148988E+002  0.336280E+000  0.181591E+000  0.663720E+000  0.358409E+000  0.000000E+000
  0.655172E+000  0.000000E+000  0.137931E+000 -0.147609E+002 -0.148988E+002  0.336280E+000  0.181591E+000  0.663720E+000  0.358409E+000  0.000000E+000
  0.689655E+000  0.000000E+000  0.137931E+000 -0.147609E+002 -0.148988E+002  0.336280E+000  0.181591E+000  0.663720E+000  0.358409E+000  0.000000E+000
  0.724138E+000  0.000000E+000  0.137931E+000 -0.147609E+002 -0.148988E+002  0.336280E+000  0.181591E+000  0.663720E+000  0.358409E+000  0.000000E+000
  0.758621E+000  0.000000E+000  0.137931E+000 -0.147609E+002 -0.148988E+002  0.336280E+000  0.181591E+000  0.663720E+000  0.358409E+000  0.000000E+000
  0.793103E+000  0.000000E+000  0.137931E+000 -0.147609E+002 -0.148988E+002  0.336280E+000  0.181591E+000  0.663720E+000  0.358409E+000  0.000000E+000
  0.827586E+000  0.000000E+000  0.137931E+000 -0.147609E+002 -0.148988E+002  0.336280E+000  0.181591E+000  0.663720E+000  0.358409E+000  0.000000E+000
  0.862069E+000  0.000000E+000  0.137931E+000 -0.147609E+002 -0.148988E+002  0.336280E+000  0.181591E+000  0.663720E+000  0.358409E+000  0.000000E+000
  0.896552E+000  0.000000E+000  0.137931E+000 -0.147609E+002 -0.148988E+002  0.336280E+000  0.181591E+000  0.663720E+000  0.358409E+000  0.000000E+000
  0.931034E+000  0.000000E+000  0.137931E+000 -0.147609E+002 -0.148988E+002  0.336280E+000  0.181591E+000  0.663720E+000  0.358409E+000  0.000000E+000
  0.965517E+000  0.000000E+000  0.137931E+000 -0.147609E+002 -0.148988E+002  0.336280E+000  0.181591E+000  0.663720E+000  0.358409E+000  0.000000E+000
  0.100000E+001  0.000000E+000  0.137931E+000 -0.147609E+002 -0.148988E+002  0.336280E+000  0.181591E+000  0.663720E+000  0.358409E+000  0.000000E+000
  0.000000E+000  0.000000E+000  0.172414E+000 -0.128625E+002 -0.130349E+002  0.350514E+000  0.189277E+000  0.649486E+000  0.350723E+000  0.000000E+000
  0.344828E-001  0.000000E+000  0.172414E+000 -0.128625E+002 -0.130349E+002  0.350514E+000  0.189277E+000  0.649486E+000  0.350723E+000  0.000000E+000
  0.689655E-001  0.000000E+000  0.172414E+000 -0.128625E+002 -0.130349E+002  0.350514E+000  0.189277E+000  0.649486E+000  0.350723E+000  0.000000E+000
  0.103448E+000  0.000000E+000  0.172414E+000 -0.128625E+002 -0.130349E+002  0.350514E+000  0.189277E+000  0.649486E+000  0.350723E+000  0.000000E+000
  0.137931E+000  0.000000E+000  0.172414E+000 -0.128625E+002 -0.130349E+002  0.350514E+000  0.189277E+000  0.649486E+000  0.350723E+000  0.000000E+000
  0.172414E+000  0.000000E+000  0.172414E+000 -0.128625E+002 -0.130349E+002  0.350514E+000  0.189277E+000  0.649486E+000  0.350723E+000  0.000000E+000
  0.206897E+000  0.000000E+000  0.172414E+000 -0.128625E+002 -0.130349E+002  0.350514E+000  0.189277E+000  0.649486E+000  0.350723E+000  0.000000E+000
  0.241379E+000  0.000000E+000  0.172414E+000 -0.128625E+002 -0.130349E+002  0.350514E+000  0.189277E+000  0.649486E+000  0.350723E+000  0.000000E+000
  0.275862E+000  0.000000E+000  0.172414E+000 -0.128625E+002 -0.130349E+002  0.350514E+000  0.189277E+000  0.649486E+000  0.350723E+000  0.000000E+000
  0.310345E+000  0.000000E+000  0.172414E+000 -0.128625E+002 -0.130349E+002  0.350514E+000  0.189277E+000  0.649486E+000  0.350723E+000  0.000000E+000
  0.344828E+000  0.000000E+000  0.172414E+000 -0.128625E+002 -0.130349E+002  0.350514E+000  0.189277E+000  0.649486E+000  0.350723E+000  0.000000E+000
  0.379310E+000  0.000000E+000  0.172414E+000 -0.128625E+002 -0.130349E+002  0.350514E+000  0.189277E+000  0.649486E+000  0.350723E+000  0.000000E+000
  0.413793E+000  0.000000E+000  0.172414E+000 -0.128625E+002 -0.130349E+002  0.350514E+000  0.189277E+000  0.649486E+000  0.350723E+000  0.000000E+000
  0.448276E+000  0.000000E+000  0.172414E+000 -0.128625E+002 -0.130349E+002  0.350514E+000  0.189277E+000  0.649486E+000  0.350723E+000  0.000000E+000
  0.482759E+000  0.000000E+000  0.172414E+000 -0.128625E+002 -0.130349E+002  0.350514E+000  0.189277E+000  0.649486E+000  0.350723E+000  0.000000E+000
  0.517241E+000  0.000000E+000  0.172414E+000 -0.128625E+002 -0.130349E+002  0.350514E+000  0.189277E+000  0.649486E+000  0.350723E+000  0.000000E+000
  0.551724E+000  0.000000E+000  0.172414E+000 -0.128625E+002 -0.130349E+002  0.350514E+000  0.189277E+000  0.649486E+000  0.350723E+000  0.000000E+000
  0.586207E+000  0.000000E+000  0.172414E+000 -0.128625E+002 -0.130349E+002  0.350514E+000  0.189277E+000  0.649486E+000  0.350723E+000  0.000000E+000
  0.620690E+000  0.000000E+000  0.172414E+000 -0.128625E+002 -0.130349E+002  0.350514E+000  0.189277E+000  0.649486E+000  0.350723E+000  0.000000E+000
  0.655172E+000  0.000000E+000  0.172414E+000 -0.128625E+002 -0.130349E+002  0.350514E+000  0.189277E+000  0.649486E+000  0.350723E+000  0.000000E+000
  0.689655E+000  0.000000E+000  0.172414E+000 -0.128625E+002 -0.130349E+002  0.350514E+000  0.189277E+000  0.649486E+000  0.350723E+000  0.000000E+000
  0.724138E+000  0.000000E+000  0.172414E+000 -0.128625E+002 -0.130349E+002  0.350514E+000  0.189277E+000  0.649486E+000  0.350723E+000  0.000000E+000
  0.758621E+000  0.000000E+000  0.172414E+000 -0.128625E+002 -0.130349E+002  0.350514E+000  0.189277E+000  0.649486E+000  0.350723E+000  0.000000E+000
  0.793103E+000  0.000000E+000  0.172414E+000 -0.128625E+002 -0.130349E+002  0.350514E+000  0.189277E+000  0.649486E+000  0.350723E+000  0.000000E+000
  0.827586E+000  0.000000E+000  0.172414E+000 -0.128625E+002 -0.130349E+002  0.350514E+000  0.189277E+000  0.649486E+000  0.350723E+000  0.000000E+000
  0.862069E+000  0.000000E+000  0.172414E+000 -0.128625E+002 -0.130349E+002  0.350514E+000  0.189277E+000  0.649486E+000  0.350723E+000  0.000000E+000
  0.896552E+000  0.000000E+000  0.172414E+000 -0.128625E+002 -0.130349E+002  0.350514E+000  0.189277E+000  0.649486E+000  0.350723E+000  0.000000E+000
  0.931034E+000  0.000000E+000  0.172414E+000 -0.128625E+002 -0.130349E+002  0.350514E+000  0.189277E+000  0.649486E+000  0.350723E+000  0.000000E+000
  0.965517E+000  0.000000E+000  0.172414E+000 -0.128625E+002 -0.130349E+002  0.350514E+000  0.189277E+000  0.649486E+000  0.350723E+000  0.000000E+000
  0.100000E+001  0.000000E+000  0.172414E+000 -0.128625E+002 -0.130349E+002  0.350514E+000  0.189277E+000  0.649486E+000  0.350723E+000  0.000000E+000
  0.000000E+000  0.000000E+000  0.206897E+000 -0.115320E+002 -0.117389E+002  0.362383E+000  0.195687E+000  0.637617E+000  0.344313E+000  0.000000E+000
  0.344828E-001  0.000000E+000  0.206897E+000 -0.115320E+002 -0.117389E+002  0.362383E+000  0.195687E+000  0.637617E+000  0.344313E+000  0.000000E+000
  0.689655E-001  0.000000E+000  0.206897E+000 -0.115320E+002 -0.117389E+002  0.362383E+000  0.195687E+000  0.637617E+000  0.344313E+000  0.000000E+000
  0.103448E+000  0.000000E+000  0.206897E+000 -0.115320E+002 -0.117389E+002  0.362383E+000  0.195687E+000  0.637617E+000  0.344313E+000  0.000000E+000
  0.137931E+000  0.000000E+000  0.206897E+000 -0.115320E+002 -0.117389E+002  0.362383E+000  0.195687E+000  0.637617E+000  0.344313E+000  0.000000E+000
  0.172414E+000  0.000000E+000  0.206897E+000 -0.115320E+002 -0.117389E+002  0.362383E+000  0.195687E+000  0.637617E+000  0.344313E+000  0.000000E+000
  0.206897E+000  0.000000E+000  0.206897E+000 -0.115320E+002 -0.117389E+002  0.362383E+000  0.195687E+000  0.637617E+000  0.344313E+000  0.000000E+000
  0.241379E+000  0.000000E+000  0.206897E+000 -0.115320E+002 -0.117389E+002  0.362383E+000  0.195687E+000  0.637617E+000  0.344313E+000  0.000000E+000
  0.275862E+000  0.000000E+000  0.206897E+000 -0.115320E+002 -0.117389E+002  0.362383E+000  0.195687E+000  0.637617E+000  0.344313E+000  0.000000E+000
  0.310345E+000  0.000000E+000  0.206897E+000 -0.115320E+002 -0.117389E+002  0.362383E+000  0.195687E+000  0.637617E+000  0.344313E+000  0.000000E+000
  0.344828E+000  0.000000E+000  0.206897E+000 -0.115320E+002 -0.117389E+002  0.362383E+000  0.195687E+000  0.637617E+000  0.344313E+000  0.000000E+000
  0.379310E+000  0.000000E+000  0.206897E+000 -0.115320E+002 -0.117389E+002  0.362383E+000  0.195687E+000  0.637617E+000  0.344313E+000  0.000000E+000
  0.413793E+000  0.000000E+000  0.206897E+000 -0.115320E+002 -0.117389E+002  0.362383E+000  0.195687E+000  0.637617E+000  0.344313E+000  0.000000E+000
  0.448276E+000  0.000000E+000  0.206897E+000 -0.115320E+002 -0.117389E+002  0.362383E+000  0.195687E+000  0.637617E+000  0.344313E+000  0.000000E+000
  0.482759E+000  0.000000E+000  0.206897E+000 -0.115320E+002 -0.117389E+002  0.362383E+000  0.195687E+000  0.637617E+000  0.344313E+000  0.000000E+000
  0.517241E+000  0.000000E+000  0.206897E+000 -0.115320E+002 -0.117389E+002  0.362383E+000  0.195687E+000  0.637617E+000  0.344313E+000  0.000000E+000
  0.551724E+000  0.000000E+000  0.206897E+000 -0.115320E+002 -0.117389E+002  0.362383E+000  0.195687E+000  0.637617E+000  0.344313E+000  0.000000E+000