title = "dataset transp-updrld"
variables = "x", "y", "z", "h_w", "p_w", "s_w", "theta_a", "s_a", "theta_g", "q_root"
zone t = "Flow variables, solution time =  2.000E+01 days        " i =   30, j =   30, k =    1,  f=point
  0.000000E+000  0.000000E+000  0.000000E+000 -0.100000E+003 -0.100000E+003  0.214462E+000  0.115809E+000  0.785538E+000  0.424191E+000  0.000000E+000
  0.344828E-001  0.000000E+000  0.000000E+000 -0.100000E+003 -0.100000E+003  0.214462E+000  0.115809E+000  0.785538E+000  0.424191E+000  0.000000E+000
  0.689655E-001  0.000000E+000  0.000000E+000 -0.100000E+003 -0.100000E+003  0.214462E+000  0.115809E+000  0.785538E+000  0.424191E+000  0.000000E+000
  0.103448E+000  0.000000E+000  0.000000E+000 -0.100000E+003 -0.100000E+003  0.214462E+000  0.115809E+000  0.785538E+000  0.424191E+000  0.000000E+000
  0.137931E+000  0.000000E+000  0.000000E+000 -0.100000E+003 -0.100000E+003  0.214462E+000  0.115809E+000  0.785538E+000  0.424191E+000  0.000000E+000
  0.172414E+000  0.000000E+000  0.000000E+000 -0.100000E+003 -0.100000E+003  0.214462E+000  0.115809E+000  0.785538E+000  0.424191E+000  0.000000E+000
  0.206897E+000  0.000000E+000  0.000000E+000 -0.100000E+003 -0.100000E+003  0.214462E+000  0.115809E+000  0.785538E+000  0.424191E+000  0.000000E+000
  0.241379E+000  0.000000E+000  0.000000E+000 -0.100000E+003 -0.100000E+003  0.214462E+000  0.115809E+000  0.785538E+000  0.424191E+000  0.000000E+000
  0.275862E+000  0.000000E+000  0.000000E+000 -0.100000E+003 -0.100000E+003  0.214462E+000  0.115809E+000  0.785538E+000  0.424191E+000  0.000000E+000
  0.310345E+000  0.000000E+000  0.000000E+000 -0.100000E+003 -0.100000E+003  0.214462E+000  0.115809E+000  0.785538E+000  0.424191E+000  0.000000E+000
  0.344828E+000  0.000000E+000  0.000000E+000 -0.100000E+003 -0.100000E+003  0.214462E+000  0.115809E+000  0.785538E+000  0.424191E+000  0.000000E+000
  0.379310E+000  0.000000E+000  0.000000E+000 -0.100000E+003 -0.100000E+003  0.214462E+000  0.115809E+000  0.785538E+000  0.424191E+000  0.000000E+000
  0.413793E+000  0.000000E+000  0.000000E+000 -0.100000E+003 -0.100000E+003  0.214462E+000  0.115809E+000  0.785538E+000  0.424191E+000  0.000000E+000
  0.448276E+000  0.000000E+000  0.000000E+000 -0.100000E+003 -0.100000E+003  0.214462E+000  0.115809E+000  0.785538E+000  0.424191E+000  0.000000E+000
  0.482759E+000  0.000000E+000  0.000000E+000 -0.100000E+003 -0.100000E+003  0.214462E+000  0.115809E+000  0.785538E+000  0.424191E+000  0.000000E+000
  0.517241E+000  0.000000E+000  0.000000E+000 -0.100000E+003 -0.100000E+003  0.214462E+000  0.115809E+000  0.785538E+000  0.424191E+000  0.000000E+000
  0.551724E+000  0.000000E+000  0.000000E+000 -0.100000E+003 -0.100000E+003  0.214462E+000  0.115809E+000  0.785538E+000  0.424191E+000  0.000000E+000
  0.586207E+000  0.000000E+000  0.000000E+000 -0.100000E+003 -0.100000E+003  0.214462E+000  0.115809E+000  0.785538E+000  0.424191E+000  0.000000E+000
  0.620690E+000  0.000000E+000  0.000000E+000 -0.100000E+003 -0.100000E+003  0.214462E+000  0.115809E+000  0.785538E+000  0.424191E+000  0.000000E+000
  0.655172E+000  0.000000E+000  0.000000E+000 -0.100000E+003 -0.100000E+003  0.214462E+000  0.115809E+000  0.785538E+000  0.424191E+000  0.000000E+000
  0.689655E+000  0.000000E+000  0.000000E+000 -0.100000E+003 -0.100000E+003  0.214462E+000  0.115809E+000  0.785538E+000  0.424191E+000  0.000000E+000
  0.724138E+000  0.000000E+000  0.000000E+000 -0.100000E+003 -0.100000E+003  0.214462E+000  0.115809E+000  0.785538E+000  0.424191E+000  0.000000E+000
  0.758621E+000  0.000000E+000  0.000000E+000 -0.100000E+003 -0.100000E+003  0.214462E+000  0.115809E+000  0.785538E+000  0.424191E+000  0.000000E+000
  0.793103E+000  0.000000E+000  0.000000E+000 -0.100000E+003 -0.100000E+003  0.214462E+000  0.115809E+000  0.785538E+000  0.424191E+000  0.000000E+000
  0.827586E+000  0.000000E+000  0.000000E+000 -0.100000E+003 -0.100000E+003  0.214462E+000  0.115809E+000  0.785538E+000  0.424191E+000  0.000000E+000
  0.862069E+000  0.000000E+000  0.000000E+000 -0.100000E+003 -0.100000E+003  0.214462E+000  0.115809E+000  0.785538E+000  0.424191E+000  0.000000E+000
  0.896552E+000  0.000000E+000  0.000000E+000 -0.100000E+003 -0.100000E+003  0.214462E+000  0.115809E+000  0.785538E+000  0.424191E+000  0.000000E+000
  0.931034E+000  0.000000E+000  0.000000E+000 -0.100000E+003 -0.100000E+003  0.214462E+000  0.115809E+000  0.785538E+000  0.424191E+000  0.000000E+000
  0.965517E+000  0.000000E+000  0.000000E+000 -0.100000E+003 -0.100000E+003  0.214462E+000  0.115809E+000  0.785538E+000  0.424191E+000  0.000000E+000
  0.100000E+001  0.000000E+000  0.000000E+000 -0.100000E+003 -0.100000E+003  0.214462E+000  0.115809E+000  0.785538E+000  0.424191E+000  0.000000E+000
  0.000000E+000  0.000000E+000  0.344828E-001 -0.390998E+002 -0.391343E+002  0.258912E+000  0.139813E+000  0.741088E+000  0.400187E+000  0.000000E+000
  0.344828E-001  0.000000E+000  0.344828E-001 -0.390998E+002 -0.391343E+002  0.258912E+000  0.139813E+000  0.741088E+000  0.400187E+000  0.000000E+000
  0.689655E-001  0.000000E+000  0.344828E-001 -0.390998E+002 -0.391343E+002  0.258912E+000  0.139813E+000  0.741088E+000  0.400187E+000  0.000000E+000
  0.103448E+000  0.000000E+000  0.344828E-001 -0.390998E+002 -0.391343E+002  0.258912E+000  0.139813E+000  0.741088E+000  0.400187E+000  0.000000E+000
  0.137931E+000  0.000000E+000  0.344828E-001 -0.390998E+002 -0.391343E+002  0.258912E+000  0.139813E+000  0.741088E+000  0.400187E+000  0.000000E+000
  0.172414E+000  0.000000E+000  0.344828E-001 -0.390998E+002 -0.391343E+002  0.258912E+000  0.139813E+000  0.741088E+000  0.400187E+000  0.000000E+000
  0.206897E+000  0.000000E+000  0.344828E-001 -0.390998E+002 -0.391343E+002  0.258912E+000  0.139813E+000  0.741088E+000  0.400187E+000  0.000000E+000
  0.241379E+000  0.000000E+000  0.344828E-001 -0.390998E+002 -0.391343E+002  0.258912E+000  0.139813E+000  0.741088E+000  0.400187E+000  0.000000E+000
  0.275862E+000  0.000000E+000  0.344828E-001 -0.390998E+002 -0.391343E+002  0.258912E+000  0.139813E+000  0.741088E+000  0.400187E+000  0.000000E+000
  0.310345E+000  0.000000E+000  0.344828E-001 -0.390998E+002 -0.391343E+002  0.258912E+000  0.139813E+000  0.741088E+000  0.400187E+000  0.000000E+000
  0.344828E+000  0.000000E+000  0.344828E-001 -0.390998E+002 -0.391343E+002  0.258912E+000  0.139813E+000  0.741088E+000  0.400187E+000  0.000000E+000
  0.379310E+000  0.000000E+000  0.344828E-001 -0.390998E+002 -0.391343E+002  0.258912E+000  0.139813E+000  0.741088E+000  0.400187E+000  0.000000E+000
  0.413793E+000  0.000000E+000  0.344828E-001 -0.390998E+002 -0.391343E+002  0.258912E+000  0.139813E+000  0.741088E+000  0.400187E+000  0.000000E+000
  0.448276E+000  0.000000E+000  0.344828E-001 -0.390998E+002 -0.391343E+002  0.258912E+000  0.139813E+000  0.741088E+000  0.400187E+000  0.000000E+000
  0.482759E+000  0.000000E+000  0.344828E-001 -0.390998E+002 -0.391343E+002  0.258912E+000  0.139813E+000  0.741088E+000  0.400187E+000  0.000000E+000
  0.517241E+000  0.000000E+000  0.344828E-001 -0.390998E+002 -0.391343E+002  0.258912E+000  0.139813E+000  0.741088E+000  0.400187E+000  0.000000E+000
  0.551724E+000  0.000000E+000  0.344828E-001 -0.390998E+002 -0.391343E+002  0.258912E+000  0.139813E+000  0.741088E+000  0.400187E+000  0.000000E+000
  0.586207E+000  0.000000E+000  0.344828E-001 -0.390998E+002 -0.391343E+002  0.258912E+000  0.139813E+000  0.741088E+000  0.400187E+000  0.000000E+000
  0.620690E+000  0.000000E+000  0.344828E-001 -0.390998E+002 -0.391343E+002  0.258912E+000  0.139813E+000  0.741088E+000  0.400187E+000  0.000000E+000
  0.655172E+000  0.000000E+000  0.344828E-001 -0.390998E+002 -0.391343E+002  0.258912E+000  0.139813E+000  0.741088E+000  0.400187E+000  0.000000E+000
  0.689655E+000  0.000000E+000  0.344828E-001 -0.390998E+002 -0.391343E+002  0.258912E+000  0.139813E+000  0.741088E+000  0.400187E+000  0.000000E+000
  0.724138E+000  0.000000E+000  0.344828E-001 -0.390998E+002 -0.391343E+002  0.258912E+000  0.139813E+000  0.741088E+000  0.400187E+000  0.000000E+000
  0.758621E+000  0.000000E+000  0.344828E-001 -0.390998E+002 -0.391343E+002  0.258912E+000  0.139813E+000  0.741088E+000  0.400187E+000  0.000000E+000
  0.793103E+000  0.000000E+000  0.344828E-001 -0.390998E+002 -0.391343E+002  0.258912E+000  0.139813E+000  0.741088E+000  0.400187E+000  0.000000E+000
  0.827586E+000  0.000000E+000  0.344828E-001 -0.390998E+002 -0.391343E+002  0.258912E+000  0.139813E+000  0.741088E+000  0.400187E+000  0.000000E+000
  0.862069E+000  0.000000E+000  0.344828E-001 -0.390998E+002 -0.391343E+002  0.258912E+000  0.139813E+000  0.741088E+000  0.400187E+000  0.000000E+000
  0.896552E+000  0.000000E+000  0.344828E-001 -0.390998E+002 -0.391343E+002  0.258912E+000  0.139813E+000  0.741088E+000  0.400187E+000  0.000000E+000
  0.931034E+000  0.000000E+000  0.344828E-001 -0.390998E+002 -0.391343E+002  0.258912E+000  0.139813E+000  0.741088E+000  0.400187E+000  0.000000E+000
  0.965517E+000  0.000000E+000  0.344828E-001 -0.390998E+002 -0.391343E+002  0.258912E+000  0.139813E+000  0.741088E+000  0.400187E+000  0.000000E+000
  0.100000E+001  0.000000E+000  0.344828E-001 -0.390998E+002 -0.391343E+002  0.258912E+000  0.139813E+000  0.741088E+000  0.400187E+000  0.000000E+000
  0.000000E+000  0.000000E+000  0.689655E-001 -0.252733E+002 -0.253423E+002  0.288759E+000  0.155930E+000  0.711241E+000  0.384070E+000  0.000000E+000
  0.344828E-001  0.000000E+000  0.689655E-001 -0.252733E+002 -0.253423E+002  0.288759E+000  0.155930E+000  0.711241E+000  0.384070E+000  0.000000E+000
  0.689655E-001  0.000000E+000  0.689655E-001 -0.252733E+002 -0.253423E+002  0.288759E+000  0.155930E+000  0.711241E+000  0.384070E+000  0.000000E+000
  0.103448E+000  0.000000E+000  0.689655E-001 -0.252733E+002 -0.253423E+002  0.288759E+000  0.155930E+000  0.711241E+000  0.384070E+000  0.000000E+000
  0.137931E+000  0.000000E+000  0.689655E-001 -0.252733E+002 -0.253423E+002  0.288759E+000  0.155930E+000  0.711241E+000  0.384070E+000  0.000000E+000
  0.172414E+000  0.000000E+000  0.689655E-001 -0.252733E+002 -0.253423E+002  0.288759E+000  0.155930E+000  0.711241E+000  0.384070E+000  0.000000E+000
  0.206897E+000  0.000000E+000  0.689655E-001 -0.252733E+002 -0.253423E+002  0.288759E+000  0.155930E+000  0.711241E+000  0.384070E+000  0.000000E+000
  0.241379E+000  0.000000E+000  0.689655E-001 -0.252733E+002 -0.253423E+002  0.288759E+000  0.155930E+000  0.711241E+000  0.384070E+000  0.000000E+000
  0.275862E+000  0.000000E+000  0.689655E-001 -0.252733E+002 -0.253423E+002  0.288759E+000  0.155930E+000  0.711241E+000  0.384070E+000  0.000000E+000
  0.310345E+000  0.000000E+000  0.689655E-001 -0.252733E+002 -0.253423E+002  0.288759E+000  0.155930E+000  0.711241E+000  0.384070E+000  0.000000E+000
  0.344828E+000  0.000000E+000  0.689655E-001 -0.252733E+002 -0.253423E+002  0.288759E+000  0.155930E+000  0.711241E+000  0.384070E+000  0.000000E+000
  0.379310E+000  0.000000E+000  0.689655E-001 -0.252733E+002 -0.253423E+002  0.288759E+000  0.155930E+000  0.711241E+000  0.384070E+000  0.000000E+000
  0.413793E+000  0.000000E+000  0.689655E-001 -0.252733E+002 -0.253423E+002  0.288759E+000  0.155930E+000  0.711241E+000  0.384070E+000  0.000000E+000
  0.448276E+000  0.000000E+000  0.689655E-001 -0.252733E+002 -0.253423E+002  0.288759E+000  0.155930E+000  0.711241E+000  0.384070E+000  0.000000E+000
  0.482759E+000  0.000000E+000  0.689655E-001 -0.252733E+002 -0.253423E+002  0.288759E+000  0.155930E+000  0.711241E+000  0.384070E+000  0.000000E+000
  0.517241E+000  0.000000E+000  0.689655E-001 -0.252733E+002 -0.253423E+002  0.288759E+000  0.155930E+000  0.711241E+000  0.384070E+000  0.000000E+000
  0.551724E+000  0.000000E+000  0.689655E-001 -0.252733E+002 -0.253423E+002  0.288759E+000  0.155930E+000  0.711241E+000  0.384070E+000  0.000000E+000
  0.586207E+000  0.000000E+000  0.689655E-001 -0.252733E+002 -0.253423E+002  0.288759E+000  0.155930E+000  0.711241E+000  0.384070E+000  0.000000E+000
  0.620690E+000  0.000000E+000  0.689655E-001 -0.252733E+002 -0.253423E+002  0.288759E+000  0.155930E+000  0.711241E+000  0.384070E+000  0.000000E+000
  0.655172E+000  0.000000E+000  0.689655E-001 -0.252733E+002 -0.253423E+002  0.288759E+000  0.155930E+000  0.711241E+000  0.384070E+000  0.000000E+000
  0.689655E+000  0.000000E+000  0.689655E-001 -0.252733E+002 -0.253423E+002  0.288759E+000  0.155930E+000  0.711241E+000  0.384070E+000  0.000000E+000
  0.724138E+000  0.000000E+000  0.689655E-001 -0.252733E+002 -0.253423E+002  0.288759E+000  0.155930E+000  0.711241E+000  0.384070E+000  0.000000E+000
  0.758621E+000  0.000000E+000  0.689655E-001 -0.252733E+002 -0.253423E+002  0.288759E+000  0.155930E+000  0.711241E+000  0.384070E+000  0.000000E+000
  0.793103E+000  0.000000E+000  0.689655E-001 -0.252733E+002 -0.253423E+002  0.288759E+000  0.155930E+000  0.711241E+000  0.384070E+000  0.000000E+000
  0.827586E+000  0.000000E+000  0.689655E-001 -0.252733E+002 -0.253423E+002  0.288759E+000  0.155930E+000  0.711241E+000  0.384070E+000  0.000000E+000
  0.862069E+000  0.000000E+000  0.689655E-001 -0.252733E+002 -0.253423E+002  0.288759E+000  0.155930E+000  0.711241E+000  0.384070E+000  0.000000E+000
  0.896552E+000  0.000000E+000  0.689655E-001 -0.252733E+002 -0.253423E+002  0.288759E+000  0.155930E+000  0.711241E+000  0.384070E+000  0.000000E+000
  0.931034E+000  0.000000E+000  0.689655E-001 -0.252733E+002 -0.253423E+002  0.288759E+000  0.155930E+000  0.711241E+000  0.384070E+000  0.000000E+000
  0.965517E+000  0.000000E+000  0.689655E-001 -0.252733E+002 -0.253423E+002  0.288759E+000  0.155930E+000  0.711241E+000  0.384070E+000  0.000000E+000
  0.100000E+001  0.000000E+000  0.689655E-001 -0.252733E+002 -0.253423E+002  0.288759E+000  0.155930E+000  0.711241E+000  0.384070E+000  0.000000E+000
  0.000000E+000  0.000000E+000  0.103448E+000 -0.195350E+002 -0.196384E+002  0.309878E+000  0.167334E+000  0.690122E+000  0.372666E+000  0.000000E+000
  0.344828E-001  0.000000E+000  0.103448E+000 -0.195350E+002 -0.196384E+002  0.309878E+000  0.167334E+000  0.690122E+000  0.372666E+000  0.000000E+000
  0.689655E-001  0.000000E+000  0.103448E+000 -0.195350E+002 -0.196384E+002  0.309878E+000  0.167334E+000  0.690122E+000  0.372666E+000  0.000000E+000
  0.103448E+000  0.000000E+000  0.103448E+000 -0.195350E+002 -0.196384E+002  0.309878E+000  0.167334E+000  0.690122E+000  0.372666E+000  0.000000E+000
  0.137931E+000  0.000000E+000  0.103448E+000 -0.195350E+002 -0.196384E+002  0.309878E+000  0.167334E+000  0.690122E+000  0.372666E+000  0.000000E+000
  0.172414E+000  0.000000E+000  0.103448E+000 -0.195350E+002 -0.196384E+002  0.309878E+000  0.167334E+000  0.690122E+000  0.372666E+000  0.000000E+000
  0.206897E+000  0.000000E+000  0.103448E+000 -0.195350E+002 -0.196384E+002  0.309878E+000  0.167334E+000  0.690122E+000  0.372666E+000  0.000000E+000
  0.241379E+000  0.000000E+000  0.103448E+000 -0.195350E+002 -0.196384E+002  0.309878E+000  0.167334E+000  0.690122E+000  0.372666E+000  0.000000E+000
  0.275862E+000  0.000000E+000  0.103448E+000 -0.195350E+002 -0.196384E+002  0.309878E+000  0.167334E+000  0.690122E+000  0.372666E+000  0.000000E+000
  0.310345E+000  0.000000E+000  0.103448E+000 -0.195350E+002 -0.196384E+002  0.309878E+000  0.167334E+000  0.690122E+000  0.372666E+000  0.000000E+000
  0.344828E+000  0.000000E+000  0.103448E+000 -0.195350E+002 -0.196384E+002  0.309878E+000  0.167334E+000  0.690122E+000  0.372666E+000  0.000000E+000
  0.379310E+000  0.000000E+000  0.103448E+000 -0.195350E+002 -0.196384E+002  0.309878E+000  0.167334E+000  0.690122E+000  0.372666E+000  0.000000E+000
  0.413793E+000  0.000000E+000  0.103448E+000 -0.195350E+002 -0.196384E+002  0.309878E+000  0.167334E+000  0.690122E+000  0.372666E+000  0.000000E+000
  0.448276E+000  0.000000E+000  0.103448E+000 -0.195350E+002 -0.196384E+002  0.309878E+000  0.167334E+000  0.690122E+000  0.372666E+000  0.000000E+000
  0.482759E+000  0.000000E+000  0.103448E+000 -0.195350E+002 -0.196384E+002  0.309878E+000  0.167334E+000  0.690122E+000  0.372666E+000  0.000000E+000
  0.517241E+000  0.000000E+000  0.103448E+000 -0.195350E+002 -0.196384E+002  0.309878E+000  0.167334E+000  0.690122E+000  0.372666E+000  0.000000E+000
  0.551724E+000  0.000000E+000  0.103448E+000 -0.195350E+002 -0.196384E+002  0.309878E+000  0.167334E+000  0.690122E+000  0.372666E+000  0.000000E+000
  0.586207E+000  0.000000E+000  0.103448E+000 -0.195350E+002 -0.196384E+002  0.309878E+000  0.167334E+000  0.690122E+000  0.372666E+000  0.000000E+000
  0.620690E+000  0.000000E+000  0.103448E+000 -0.195350E+002 -0.196384E+002  0.309878E+000  0.167334E+000  0.690122E+000  0.372666E+000  0.000000E+000
  0.655172E+000  0.000000E+000  0.103448E+000 -0.195350E+002 -0.196384E+002  0.309878E+000  0.167334E+000  0.690122E+000  0.372666E+000  0.000000E+000
  0.689655E+000  0.000000E+000  0.103448E+000 -0.195350E+002 -0.196384E+002  0.309878E+000  0.167334E+000  0.690122E+000  0.372666E+000  0.000000E+000
  0.724138E+000  0.000000E+000  0.103448E+000 -0.195350E+002 -0.196384E+002  0.309878E+000  0.167334E+000  0.690122E+000  0.372666E+000  0.000000E+000
  0.758621E+000  0.000000E+000  0.103448E+000 -0.195350E+002 -0.196384E+002  0.309878E+000  0.167334E+000  0.690122E+000  0.372666E+000  0.000000E+000
  0.793103E+000  0.000000E+000  0.103448E+000 -0.195350E+002 -0.196384E+002  0.309878E+000  0.167334E+000  0.690122E+000  0.372666E+000  0.000000E+000
  0.827586E+000  0.000000E+000  0.103448E+000 -0.195350E+002 -0.196384E+002  0.309878E+000  0.167334E+000  0.690122E+000  0.372666E+000  0.000000E+000
  0.862069E+000  0.000000E+000  0.103448E+000 -0.195350E+002 -0.196384E+002  0.309878E+000  0.167334E+000  0.690122E+000  0.372666E+000  0.000000E+000
  0.896552E+000  0.000000E+000  0.103448E+000 -0.195350E+002 -0.196384E+002  0.309878E+000  0.167334E+000  0.690122E+000  0.372666E+000  0.000000E+000
  0.931034E+000  0.000000E+000  0.103448E+000 -0.195350E+002 -0.196384E+002  0.309878E+000  0.167334E+000  0.690122E+000  0.372666E+000  0.000000E+000
  0.965517E+000  0.000000E+000  0.103448E+000 -0.195350E+002 -0.196384E+002  0.309878E+000  0.167334E+000  0.690122E+000  0.372666E+000  0.000000E+000
  0.100000E+001  0.000000E+000  0.103448E+000 -0.195350E+002 -0.196384E+002  0.309878E+000  0.167334E+000  0.690122E+000  0.372666E+000  0.000000E+000
  0.000000E+000  0.000000E+000  0.137931E+000 -0.163954E+002 -0.165333E+002  0.325869E+000  0.175969E+000  0.674131E+000  0.364031E+000  0.000000E+000
  0.344828E-001  0.000000E+000  0.137931E+000 -0.163954E+002 -0.165333E+002  0.325869E+000  0.175969E+000  0.674131E+000  0.364031E+000  0.000000E+000
  0.689655E-001  0.000000E+000  0.137931E+000 -0.163954E+002 -0.165333E+002  0.325869E+000  0.175969E+000  0.674131E+000  0.364031E+000  0.000000E+000
  0.103448E+000  0.000000E+000  0.137931E+000 -0.163954E+002 -0.165333E+002  0.325869E+000  0.175969E+000  0.674131E+000  0.364031E+000  0.000000E+000
  0.137931E+000  0.000000E+000  0.137931E+000 -0.163954E+002 -0.165333E+002  0.325869E+000  0.175969E+000  0.674131E+000  0.364031E+000  0.000000E+000
  0.172414E+000  0.000000E+000  0.137931E+000 -0.163954E+002 -0.165333E+002  0.325869E+000  0.175969E+000  0.674131E+000  0.364031E+000  0.000000E+000
  0.206897E+000  0.000000E+000  0.137931E+000 -0.163954E+002 -0.165333E+002  0.325869E+000  0.175969E+000  0.674131E+000  0.364031E+000  0.000000E+000
  0.241379E+000  0.000000E+000  0.137931E+000 -0.163954E+002 -0.165333E+002  0.325869E+000  0.175969E+000  0.674131E+000  0.364031E+000  0.000000E+000
  0.275862E+000  0.000000E+000  0.137931E+000 -0.163954E+002 -0.165333E+002  0.325869E+000  0.175969E+000  0.674131E+000  0.364031E+000  0.000000E+000
  0.310345E+000  0.000000E+000  0.137931E+000 -0.163954E+002 -0.165333E+002  0.325869E+000  0.175969E+000  0.674131E+000  0.364031E+000  0.000000E+000
  0.344828E+000  0.000000E+000  0.137931E+000 -0.163954E+002 -0.165333E+002  0.325869E+000  0.175969E+000  0.674131E+000  0.364031E+000  0.000000E+000
  0.379310E+000  0.000000E+000  0.137931E+000 -0.163954E+002 -0.165333E+002  0.325869E+000  0.175969E+000  0.674131E+000  0.364031E+000  0.000000E+000
  0.413793E+000  0.000000E+000  0.137931E+000 -0.163954E+002 -0.165333E+002  0.325869E+000  0.175969E+000  0.674131E+000  0.364031E+000  0.000000E+000
  0.448276E+000  0.000000E+000  0.137931E+000 -0.163954E+002 -0.165333E+002  0.325869E+000  0.175969E+000  0.674131E+000  0.364031E+000  0.000000E+000
  0.482759E+000  0.000000E+000  0.137931E+000 -0.163954E+002 -0.165333E+002  0.325869E+000  0.175969E+000  0.674131E+000  0.364031E+000  0.000000E+000
  0.517241E+000  0.000000E+000  0.137931E+000 -0.163954E+002 -0.165333E+002  0.325869E+000  0.175969E+000  0.674131E+000  0.364031E+000  0.000000E+000
  0.551724E+000  0.000000E+000  0.137931E+000 -0.163954E+002 -0.165333E+002  0.325869E+000  0.175969E+000  0.674131E+000  0.364031E+000  0.000000E+000
  0.586207E+000  0.000000E+000  0.137931E+000 -0.163954E+002 -0.165333E+002  0.325869E+000  0.175969E+000  0.674131E+000  0.364031E+000  0.000000E+000
  0.620690E+000  0.000000E+000  0.137931E+000 -0.163954E+002 -0.165333E+002  0.325869E+000  0.175969E+000  0.674131E+000  0.364031E+000  0.000000E+000
  0.655172E+000  0.000000E+000  0.137931E+000 -0.163954E+002 -0.165333E+002  0.325869E+000  0.175969E+000  0.674131E+000  0.364031E+000  0.000000E+000
  0.689655E+000  0.000000E+000  0.137931E+000 -0.163954E+002 -0.165333E+002  0.325869E+000  0.175969E+000  0.674131E+000  0.364031E+000  0.000000E+000
  0.724138E+000  0.000000E+000  0.137931E+000 -0.163954E+002 -0.165333E+002  0.325869E+000  0.175969E+000  0.674131E+000  0.364031E+000  0.000000E+000
  0.758621E+000  0.000000E+000  0.137931E+000 -0.163954E+002 -0.165333E+002  0.325869E+000  0.175969E+000  0.674131E+000  0.364031E+000  0.000000E+000
  0.793103E+000  0.000000E+000  0.137931E+000 -0.163954E+002 -0.165333E+002  0.325869E+000  0.175969E+000  0.674131E+000  0.364031E+000  0.000000E+000
  0.827586E+000  0.000000E+000  0.137931E+000 -0.163954E+002 -0.165333E+002  0.325869E+000  0.175969E+000  0.674131E+000  0.364031E+000  0.000000E+000
  0.862069E+000  0.000000E+000  0.137931E+000 -0.163954E+002 -0.165333E+002  0.325869E+000  0.175969E+000  0.674131E+000  0.364031E+000  0.000000E+000
  0.896552E+000  0.000000E+000  0.137931E+000 -0.163954E+002 -0.165333E+002  0.325869E+000  0.175969E+000  0.674131E+000  0.364031E+000  0.000000E+000
  0.931034E+000  0.000000E+000  0.137931E+000 -0.163954E+002 -0.165333E+002  0.325869E+000  0.175969E+000  0.674131E+000  0.364031E+000  0.000000E+000
  0.965517E+000  0.000000E+000  0.137931E+000 -0.163954E+002 -0.165333E+002  0.325869E+000  0.175969E+000  0.674131E+000  0.364031E+000  0.000000E+000
  0.100000E+001  0.000000E+000  0.137931E+000 -0.163954E+002 -0.165333E+002  0.325869E+000  0.175969E+000  0.674131E+000  0.364031E+000  0.000000E+000
  0.000000E+000  0.000000E+000  0.172414E+000 -0.143979E+002 -0.145703E+002  0.338585E+000  0.182836E+000  0.661415E+000  0.357164E+000  0.000000E+000
  0.344828E-001  0.000000E+000  0.172414E+000 -0.143979E+002 -0.145703E+002  0.338585E+000  0.182836E+000  0.661415E+000  0.357164E+000  0.000000E+000
  0.689655E-001  0.000000E+000  0.172414E+000 -0.143979E+002 -0.145703E+002  0.338585E+000  0.182836E+000  0.661415E+000  0.357164E+000  0.000000E+000
  0.103448E+000  0.000000E+000  0.172414E+000 -0.143979E+002 -0.145703E+002  0.338585E+000  0.182836E+000  0.661415E+000  0.357164E+000  0.000000E+000
  0.137931E+000  0.000000E+000  0.172414E+000 -0.143979E+002 -0.145703E+002  0.338585E+000  0.182836E+000  0.661415E+000  0.357164E+000  0.000000E+000
  0.172414E+000  0.000000E+000  0.172414E+000 -0.143979E+002 -0.145703E+002  0.338585E+000  0.182836E+000  0.661415E+000  0.357164E+000  0.000000E+000
  0.206897E+000  0.000000E+000  0.172414E+000 -0.143979E+002 -0.145703E+002  0.338585E+000  0.182836E+000  0.661415E+000  0.357164E+000  0.000000E+000
  0.241379E+000  0.000000E+000  0.172414E+000 -0.143979E+002 -0.145703E+002  0.338585E+000  0.182836E+000  0.661415E+000  0.357164E+000  0.000000E+000
  0.275862E+000  0.000000E+000  0.172414E+000 -0.143979E+002 -0.145703E+002  0.338585E+000  0.182836E+000  0.661415E+000  0.357164E+000  0.000000E+000
  0.310345E+000  0.000000E+000  0.172414E+000 -0.143979E+002 -0.145703E+002  0.338585E+000  0.182836E+000  0.661415E+000  0.357164E+000  0.000000E+000
  0.344828E+000  0.000000E+000  0.172414E+000 -0.143979E+002 -0.145703E+002  0.338585E+000  0.182836E+000  0.661415E+000  0.357164E+000  0.000000E+000
  0.379310E+000  0.000000E+000  0.172414E+000 -0.143979E+002 -0.145703E+002  0.338585E+000  0.182836E+000  0.661415E+000  0.357164E+000  0.000000E+000
  0.413793E+000  0.000000E+000  0.172414E+000 -0.143979E+002 -0.145703E+002  0.338585E+000  0.182836E+000  0.661415E+000  0.357164E+000  0.000000E+000
  0.448276E+000  0.000000E+000  0.172414E+000 -0.143979E+002 -0.145703E+002  0.338585E+000  0.182836E+000  0.661415E+000  0.357164E+000  0.000000E+000
  0.482759E+000  0.000000E+000  0.172414E+000 -0.143979E+002 -0.145703E+002  0.338585E+000  0.182836E+000  0.661415E+000  0.357164E+000  0.000000E+000
  0.517241E+000  0.000000E+000  0.172414E+000 -0.143979E+002 -0.145703E+002  0.338585E+000  0.182836E+000  0.661415E+000  0.357164E+000  0.000000E+000
  0.551724E+000  0.000000E+000  0.172414E+000 -0.143979E+002 -0.145703E+002  0.338585E+000  0.182836E+000  0.661415E+000  0.357164E+000  0.000000E+000
  0.586207E+000  0.000000E+000  0.172414E+000 -0.143979E+002 -0.145703E+002  0.338585E+000  0.182836E+000  0.661415E+000  0.357164E+000  0.000000E+000
  0.620690E+000  0.000000E+000  0.172414E+000 -0.143979E+002 -0.145703E+002  0.338585E+000  0.182836E+000  0.661415E+000  0.357164E+000  0.000000E+000
  0.655172E+000  0.000000E+000  0.172414E+000 -0.143979E+002 -0.145703E+002  0.338585E+000  0.182836E+000  0.661415E+000  0.357164E+000  0.000000E+000
  0.689655E+000  0.000000E+000  0.172414E+000 -0.143979E+002 -0.145703E+002  0.338585E+000  0.182836E+000  0.661415E+000  0.357164E+000  0.000000E+000
  0.724138E+000  0.000000E+000  0.172414E+000 -0.143979E+002 -0.145703E+002  0.338585E+000  0.182836E+000  0.661415E+000  0.357164E+000  0.000000E+000
  0.758621E+000  0.000000E+000  0.172414E+000 -0.143979E+002 -0.145703E+002  0.338585E+000  0.182836E+000  0.661415E+000  0.357164E+000  0.000000E+000
  0.793103E+000  0.000000E+000  0.172414E+000 -0.143979E+002 -0.145703E+002  0.338585E+000  0.182836E+000  0.661415E+000  0.357164E+000  0.000000E+000
  0.827586E+000  0.000000E+000  0.172414E+000 -0.143979E+002 -0.145703E+002  0.338585E+000  0.182836E+000  0.661415E+000  0.357164E+000  0.000000E+000
  0.862069E+000  0.000000E+000  0.172414E+000 -0.143979E+002 -0.145703E+002  0.338585E+000  0.182836E+000  0.661415E+000  0.357164E+000  0.000000E+000
  0.896552E+000  0.000000E+000  0.172414E+000 -0.143979E+002 -0.145703E+002  0.338585E+000  0.182836E+000  0.661415E+000  0.357164E+000  0.000000E+000
  0.931034E+000  0.000000E+000  0.172414E+000 -0.143979E+002 -0.145703E+002  0.338585E+000  0.182836E+000  0.661415E+000  0.357164E+000  0.000000E+000
  0.965517E+000  0.000000E+000  0.172414E+000 -0.143979E+002 -0.145703E+002  0.338585E+000  0.182836E+000  0.661415E+000  0.357164E+000  0.000000E+000
  0.100000E+001  0.000000E+000  0.172414E+000 -0.143979E+002 -0.145703E+002  0.338585E+000  0.182836E+000  0.661415E+000  0.357164E+000  0.000000E+000
  0.000000E+000  0.000000E+000  0.206897E+000 -0.130037E+002 -0.132106E+002  0.349042E+000  0.188483E+000  0.650958E+000  0.351517E+000  0.000000E+000
  0.344828E-001  0.000000E+000  0.206897E+000 -0.130037E+002 -0.132106E+002  0.349042E+000  0.188483E+000  0.650958E+000  0.351517E+000  0.000000E+000
  0.689655E-001  0.000000E+000  0.206897E+000 -0.130037E+002 -0.132106E+002  0.349042E+000  0.188483E+000  0.650958E+000  0.351517E+000  0.000000E+000
  0.103448E+000  0.000000E+000  0.206897E+000 -0.130037E+002 -0.132106E+002  0.349042E+000  0.188483E+000  0.650958E+000  0.351517E+000  0.000000E+000
  0.137931E+000  0.000000E+000  0.206897E+000 -0.130037E+002 -0.132106E+002  0.349042E+000  0.188483E+000  0.650958E+000  0.351517E+000  0.000000E+000
  0.172414E+000  0.000000E+000  0.206897E+000 -0.130037E+002 -0.132106E+002  0.349042E+000  0.188483E+000  0.650958E+000  0.351517E+000  0.000000E+000
  0.206897E+000  0.000000E+000  0.206897E+000 -0.130037E+002 -0.132106E+002  0.349042E+000  0.188483E+000  0.650958E+000  0.351517E+000  0.000000E+000
  0.241379E+000  0.000000E+000  0.206897E+000 -0.130037E+002 -0.132106E+002  0.349042E+000  0.188483E+000  0.650958E+000  0.351517E+000  0.000000E+000
  0.275862E+000  0.000000E+000  0.206897E+000 -0.130037E+002 -0.132106E+002  0.349042E+000  0.188483E+000  0.650958E+000  0.351517E+000  0.000000E+000
  0.310345E+000  0.000000E+000  0.206897E+000 -0.130037E+002 -0.132106E+002  0.349042E+000  0.188483E+000  0.650958E+000  0.351517E+000  0.000000E+000
  0.344828E+000  0.000000E+000  0.206897E+000 -0.130037E+002 -0.132106E+002  0.349042E+000  0.188483E+000  0.650958E+000  0.351517E+000  0.000000E+000
  0.379310E+000  0.000000E+000  0.206897E+000 -0.130037E+002 -0.132106E+002  0.349042E+000  0.188483E+000  0.650958E+000  0.351517E+000  0.000000E+000
  0.413793E+000  0.000000E+000  0.206897E+000 -0.130037E+002 -0.132106E+002  0.349042E+000  0.188483E+000  0.650958E+000  0.351517E+000  0.000000E+000
  0.448276E+000  0.000000E+000  0.206897E+000 -0.130037E+002 -0.132106E+002  0.349042E+000  0.188483E+000  0.650958E+000  0.351517E+000  0.000000E+000
  0.482759E+000  0.000000E+000  0.206897E+000 -0.130037E+002 -0.132106E+002  0.349042E+000  0.188483E+000  0.650958E+000  0.351517E+000  0.000000E+000
  0.517241E+000  0.000000E+000  0.206897E+000 -0.130037E+002 -0.132106E+002  0.349042E+000  0.188483E+000  0.650958E+000  0.351517E+000  0.000000E+000
  0.551724E+000  0.000000E+000  0.206897E+000 -0.130037E+002 -0.132106E+002  0.349042E+000  0.188483E+000  0.650958E+000  0.351517E+000  0.000000E+000