title = "dataset transp-updrld"
variables = "x", "y", "z", "h_w", "p_w", "s_w", "theta_a", "s_a", "theta_g", "q_root"
zone t = "Flow variables, initial condition" i =   30, j =   30, k =    1,  f=point
  0.000000E+000  0.000000E+000  0.000000E+000 -0.100000E+002 -0.100000E+002  0.381837E+000  0.206192E+000  0.618163E+000  0.333808E+000  0.000000E+000
  0.344828E-001  0.000000E+000  0.000000E+000 -0.100000E+002 -0.100000E+002  0.381837E+000  0.206192E+000  0.618163E+000  0.333808E+000  0.000000E+000
  0.689655E-001  0.000000E+000  0.000000E+000 -0.100000E+002 -0.100000E+002  0.381837E+000  0.206192E+000  0.618163E+000  0.333808E+000  0.000000E+000
  0.103448E+000  0.000000E+000  0.000000E+000 -0.100000E+002 -0.100000E+002  0.381837E+000  0.206192E+000  0.618163E+000  0.333808E+000  0.000000E+000
  0.137931E+000  0.000000E+000  0.000000E+000 -0.100000E+002 -0.100000E+002  0.381837E+000  0.206192E+000  0.618163E+000  0.333808E+000  0.000000E+000
  0.172414E+000  0.000000E+000  0.000000E+000 -0.100000E+002 -0.100000E+002  0.381837E+000  0.206192E+000  0.618163E+000  0.333808E+000  0.000000E+000
  0.206897E+000  0.000000E+000  0.000000E+000 -0.100000E+002 -0.100000E+002  0.381837E+000  0.206192E+000  0.618163E+000  0.333808E+000  0.000000E+000
  0.241379E+000  0.000000E+000  0.000000E+000 -0.100000E+002 -0.100000E+002  0.381837E+000  0.206192E+000  0.618163E+000  0.333808E+000  0.000000E+000
  0.275862E+000  0.000000E+000  0.000000E+000 -0.100000E+002 -0.100000E+002  0.381837E+000  0.206192E+000  0.618163E+000  0.333808E+000  0.000000E+000
  0.310345E+000  0.000000E+000  0.000000E+000 -0.100000E+002 -0.100000E+002  0.381837E+000  0.206192E+000  0.618163E+000  0.333808E+000  0.000000E+000
  0.344828E+000  0.000000E+000  0.000000E+000 -0.100000E+002 -0.100000E+002  0.381837E+000  0.206192E+000  0.618163E+000  0.333808E+000  0.000000E+000
  0.379310E+000  0.000000E+000  0.000000E+000 -0.100000E+002 -0.100000E+002  0.381837E+000  0.206192E+000  0.618163E+000  0.333808E+000  0.000000E+000
  0.413793E+000  0.000000E+000  0.000000E+000 -0.100000E+002 -0.100000E+002  0.381837E+000  0.206192E+000  0.618163E+000  0.333808E+000  0.000000E+000
  0.448276E+000  0.000000E+000  0.000000E+000 -0.100000E+002 -0.100000E+002  0.381837E+000  0.206192E+000  0.618163E+000  0.333808E+000  0.000000E+000
  0.482759E+000  0.000000E+000  0.000000E+000 -0.100000E+002 -0.100000E+002  0.381837E+000  0.206192E+000  0.618163E+000  0.333808E+000  0.000000E+000
  0.517241E+000  0.000000E+000  0.000000E+000 -0.100000E+002 -0.100000E+002  0.381837E+000  0.206192E+000  0.618163E+000  0.333808E+000  0.000000E+000
  0.551724E+000  0.000000E+000  0.000000E+000 -0.100000E+002 -0.100000E+002  0.381837E+000  0.206192E+000  0.618163E+000  0.333808E+000  0.000000E+000
  0.586207E+000  0.000000E+000  0.000000E+000 -0.100000E+002 -0.100000E+002  0.381837E+000  0.206192E+000  0.618163E+000  0.333808E+000  0.000000E+000
  0.620690E+000  0.000000E+000  0.000000E+000 -0.100000E+002 -0.100000E+002  0.381837E+000  0.206192E+000  0.618163E+000  0.333808E+000  0.000000E+000
  0.655172E+000  0.000000E+000  0.000000E+000 -0.100000E+002 -0.100000E+002  0.381837E+000  0.206192E+000  0.618163E+000  0.333808E+000  0.000000E+000
  0.689655E+000  0.000000E+000  0.000000E+000 -0.100000E+002 -0.100000E+002  0.381837E+000  0.206192E+000  0.618163E+000  0.333808E+000  0.000000E+000
  0.724138E+000  0.000000E+000  0.000000E+000 -0.100000E+002 -0.100000E+002  0.381837E+000  0.206192E+000  0.618163E+000  0.333808E+000  0.000000E+000
  0.758621E+000  0.000000E+000  0.000000E+000 -0.100000E+002 -0.100000E+002  0.381837E+000  0.206192E+000  0.618163E+000  0.333808E+000  0.000000E+000
  0.793103E+000  0.000000E+000  0.000000E+000 -0.100000E+002 -0.100000E+002  0.381837E+000  0.206192E+000  0.618163E+000  0.333808E+000  0.000000E+000
  0.827586E+000  0.000000E+000  0.000000E+000 -0.100000E+002 -0.100000E+002  0.381837E+000  0.206192E+000  0.618163E+000  0.333808E+000  0.000000E+000
  0.862069E+000  0.000000E+000  0.000000E+000 -0.100000E+002 -0.100000E+002  0.381837E+000  0.206192E+000  0.618163E+000  0.333808E+000  0.000000E+000
  0.896552E+000  0.000000E+000  0.000000E+000 -0.100000E+002 -0.100000E+002  0.381837E+000  0.206192E+000  0.618163E+000  0.333808E+000  0.000000E+000
  0.931034E+000  0.000000E+000  0.000000E+000 -0.100000E+002 -0.100000E+002  0.381837E+000  0.206192E+000  0.618163E+000  0.333808E+000  0.000000E+000
  0.965517E+000  0.000000E+000  0.000000E+000 -0.100000E+002 -0.100000E+002  0.381837E+000  0.206192E+000  0.618163E+000  0.333808E+000  0.000000E+000
  0.100000E+001  0.000000E+000  0.000000E+000 -0.100000E+002 -0.100000E+002  0.381837E+000  0.206192E+000  0.618163E+000  0.333808E+000  0.000000E+000
  0.000000E+000  0.000000E+000  0.344828E-001 -0.100000E+002 -0.100345E+002  0.381403E+000  0.205957E+000  0.618597E+000  0.334043E+000  0.000000E+000
  0.344828E-001  0.000000E+000  0.344828E-001 -0.100000E+002 -0.100345E+002  0.381403E+000  0.205957E+000  0.618597E+000  0.334043E+000  0.000000E+000
  0.689655E-001  0.000000E+000  0.344828E-001 -0.100000E+002 -0.100345E+002  0.381403E+000  0.205957E+000  0.618597E+000  0.334043E+000  0.000000E+000
  0.103448E+000  0.000000E+000  0.344828E-001 -0.100000E+002 -0.100345E+002  0.381403E+000  0.205957E+000  0.618597E+000  0.334043E+000  0.000000E+000
  0.137931E+000  0.000000E+000  0.344828E-001 -0.100000E+002 -0.100345E+002  0.381403E+000  0.205957E+000  0.618597E+000  0.334043E+000  0.000000E+000
  0.172414E+000  0.000000E+000  0.344828E-001 -0.100000E+002 -0.100345E+002  0.381403E+000  0.205957E+000  0.618597E+000  0.334043E+000  0.000000E+000
  0.206897E+000  0.000000E+000  0.344828E-001 -0.100000E+002 -0.100345E+002  0.381403E+000  0.205957E+000  0.618597E+000  0.334043E+000  0.000000E+000
  0.241379E+000  0.000000E+000  0.344828E-001 -0.100000E+002 -0.100345E+002  0.381403E+000  0.205957E+000  0.618597E+000  0.334043E+000  0.000000E+000
  0.275862E+000  0.000000E+000  0.344828E-001 -0.100000E+002 -0.100345E+002  0.381403E+000  0.205957E+000  0.618597E+000  0.334043E+000  0.000000E+000
  0.310345E+000  0.000000E+000  0.344828E-001 -0.100000E+002 -0.100345E+002  0.381403E+000  0.205957E+000  0.618597E+000  0.334043E+000  0.000000E+000
  0.344828E+000  0.000000E+000  0.344828E-001 -0.100000E+002 -0.100345E+002  0.381403E+000  0.205957E+000  0.618597E+000  0.334043E+000  0.000000E+000
  0.379310E+000  0.000000E+000  0.344828E-001 -0.100000E+002 -0.100345E+002  0.381403E+000  0.205957E+000  0.618597E+000  0.334043E+000  0.000000E+000
  0.413793E+000  0.000000E+000  0.344828E-001 -0.100000E+002 -0.100345E+002  0.381403E+000  0.205957E+000  0.618597E+000  0.334043E+000  0.000000E+000
  0.448276E+000  0.000000E+000  0.344828E-001 -0.100000E+002 -0.100345E+002  0.381403E+000  0.205957E+000  0.618597E+000  0.334043E+000  0.000000E+000
  0.482759E+000  0.000000E+000  0.344828E-001 -0.100000E+002 -0.100345E+002  0.381403E+000  0.205957E+000  0.618597E+000  0.334043E+000  0.000000E+000
  0.517241E+000  0.000000E+000  0.344828E-001 -0.100000E+002 -0.100345E+002  0.381403E+000  0.205957E+000  0.618597E+000  0.334043E+000  0.000000E+000
  0.551724E+000  0.000000E+000  0.344828E-001 -0.100000E+002 -0.100345E+002  0.381403E+000  0.205957E+000  0.618597E+000  0.334043E+000  0.000000E+000
  0.586207E+000  0.000000E+000  0.344828E-001 -0.100000E+002 -0.100345E+002  0.381403E+000  0.205957E+000  0.618597E+000  0.334043E+000  0.000000E+000
  0.620690E+000  0.000000E+000  0.344828E-001 -0.100000E+002 -0.100345E+002  0.381403E+000  0.205957E+000  0.618597E+000  0.334043E+000  0.000000E+000
  0.655172E+000  0.000000E+000  0.344828E-001 -0.100000E+002 -0.100345E+002  0.381403E+000  0.205957E+000  0.618597E+000  0.334043E+000  0.000000E+000
  0.689655E+000  0.000000E+000  0.344828E-001 -0.100000E+002 -0.100345E+002  0.381403E+000  0.205957E+000  0.618597E+000  0.334043E+000  0.000000E+000
  0.724138E+000  0.000000E+000  0.344828E-001 -0.100000E+002 -0.100345E+002  0.381403E+000  0.205957E+000  0.618597E+000  0.334043E+000  0.000000E+000
  0.758621E+000  0.000000E+000  0.344828E-001 -0.100000E+002 -0.100345E+002  0.381403E+000  0.205957E+000  0.618597E+000  0.334043E+000  0.000000E+000
  0.793103E+000  0.000000E+000  0.344828E-001 -0.100000E+002 -0.100345E+002  0.381403E+000  0.205957E+000  0.618597E+000  0.334043E+000  0.000000E+000
  0.827586E+000  0.000000E+000  0.344828E-001 -0.100000E+002 -0.100345E+002  0.381403E+000  0.205957E+000  0.618597E+000  0.334043E+000  0.000000E+000
  0.862069E+000  0.000000E+000  0.344828E-001 -0.100000E+002 -0.100345E+002  0.381403E+000  0.205957E+000  0.618597E+000  0.334043E+000  0.000000E+000
  0.896552E+000  0.000000E+000  0.344828E-001 -0.100000E+002 -0.100345E+002  0.381403E+000  0.205957E+000  0.618597E+000  0.334043E+000  0.000000E+000
  0.931034E+000  0.000000E+000  0.344828E-001 -0.100000E+002 -0.100345E+002  0.381403E+000  0.205957E+000  0.618597E+000  0.334043E+000  0.000000E+000
  0.965517E+000  0.000000E+000  0.344828E-001 -0.100000E+002 -0.100345E+002  0.381403E+000  0.205957E+000  0.618597E+000  0.334043E+000  0.000000E+000
  0.100000E+001  0.000000E+000  0.344828E-001 -0.100000E+002 -0.100345E+002  0.381403E+000  0.205957E+000  0.618597E+000  0.334043E+000  0.000000E+000
  0.000000E+000  0.000000E+000  0.689655E-001 -0.100000E+002 -0.100690E+002  0.380970E+000  0.205724E+000  0.619030E+000  0.334276E+000  0.000000E+000
  0.344828E-001  0.000000E+000  0.689655E-001 -0.100000E+002 -0.100690E+002  0.380970E+000  0.205724E+000  0.619030E+000  0.334276E+000  0.000000E+000
  0.689655E-001  0.000000E+000  0.689655E-001 -0.100000E+002 -0.100690E+002  0.380970E+000  0.205724E+000  0.619030E+000  0.334276E+000  0.000000E+000
  0.103448E+000  0.000000E+000  0.689655E-001 -0.100000E+002 -0.100690E+002  0.380970E+000  0.205724E+000  0.619030E+000  0.334276E+000  0.000000E+000
  0.137931E+000  0.000000E+000  0.689655E-001 -0.100000E+002 -0.100690E+002  0.380970E+000  0.205724E+000  0.619030E+000  0.334276E+000  0.000000E+000
  0.172414E+000  0.000000E+000  0.689655E-001 -0.100000E+002 -0.100690E+002  0.380970E+000  0.205724E+000  0.619030E+000  0.334276E+000  0.000000E+000
  0.206897E+000  0.000000E+000  0.689655E-001 -0.100000E+002 -0.100690E+002  0.380970E+000  0.205724E+000  0.619030E+000  0.334276E+000  0.000000E+000
  0.241379E+000  0.000000E+000  0.689655E-001 -0.100000E+002 -0.100690E+002  0.380970E+000  0.205724E+000  0.619030E+000  0.334276E+000  0.000000E+000
  0.275862E+000  0.000000E+000  0.689655E-001 -0.100000E+002 -0.100690E+002  0.380970E+000  0.205724E+000  0.619030E+000  0.334276E+000  0.000000E+000
  0.310345E+000  0.000000E+000  0.689655E-001 -0.100000E+002 -0.100690E+002  0.380970E+000  0.205724E+000  0.619030E+000  0.334276E+000  0.000000E+000
  0.344828E+000  0.000000E+000  0.689655E-001 -0.100000E+002 -0.100690E+002  0.380970E+000  0.205724E+000  0.619030E+000  0.334276E+000  0.000000E+000
  0.379310E+000  0.000000E+000  0.689655E-001 -0.100000E+002 -0.100690E+002  0.380970E+000  0.205724E+000  0.619030E+000  0.334276E+000  0.000000E+000
  0.413793E+000  0.000000E+000  0.689655E-001 -0.100000E+002 -0.100690E+002  0.380970E+000  0.205724E+000  0.619030E+000  0.334276E+000  0.000000E+000
  0.448276E+000  0.000000E+000  0.689655E-001 -0.100000E+002 -0.100690E+002  0.380970E+000  0.205724E+000  0.619030E+000  0.334276E+000  0.000000E+000
  0.482759E+000  0.000000E+000  0.689655E-001 -0.100000E+002 -0.100690E+002  0.380970E+000  0.205724E+000  0.619030E+000  0.334276E+000  0.000000E+000
  0.517241E+000  0.000000E+000  0.689655E-001 -0.100000E+002 -0.100690E+002  0.380970E+000  0.205724E+000  0.619030E+000  0.334276E+000  0.000000E+000
  0.551724E+000  0.000000E+000  0.689655E-001 -0.100000E+002 -0.100690E+002  0.380970E+000  0.205724E+000  0.619030E+000  0.334276E+000  0.000000E+000
  0.586207E+000  0.000000E+000  0.689655E-001 -0.100000E+002 -0.100690E+002  0.380970E+000  0.205724E+000  0.619030E+000  0.334276E+000  0.000000E+000
  0.620690E+000  0.000000E+000  0.689655E-001 -0.100000E+002 -0.100690E+002  0.380970E+000  0.205724E+000  0.619030E+000  0.334276E+000  0.000000E+000
  0.655172E+000  0.000000E+000  0.689655E-001 -0.100000E+002 -0.100690E+002  0.380970E+000  0.205724E+000  0.619030E+000  0.334276E+000  0.000000E+000
  0.689655E+000  0.000000E+000  0.689655E-001 -0.100000E+002 -0.100690E+002  0.380970E+000  0.205724E+000  0.619030E+000  0.334276E+000  0.000000E+000
  0.724138E+000  0.000000E+000  0.689655E-001 -0.100000E+002 -0.100690E+002  0.380970E+000  0.205724E+000  0.619030E+000  0.334276E+000  0.000000E+000
  0.758621E+000  0.000000E+000  0.689655E-001 -0.100000E+002 -0.100690E+002  0.380970E+000  0.205724E+000  0.619030E+000  0.334276E+000  0.000000E+000
  0.793103E+000  0.000000E+000  0.689655E-001 -0.100000E+002 -0.100690E+002  0.380970E+000  0.205724E+000  0.619030E+000  0.334276E+000  0.000000E+000
  0.827586E+000  0.000000E+000  0.689655E-001 -0.100000E+002 -0.100690E+002  0.380970E+000  0.205724E+000  0.619030E+000  0.334276E+000  0.000000E+000
  0.862069E+000  0.000000E+000  0.689655E-001 -0.100000E+002 -0.100690E+002  0.380970E+000  0.205724E+000  0.619030E+000  0.334276E+000  0.000000E+000
  0.896552E+000  0.000000E+000  0.689655E-001 -0.100000E+002 -0.100690E+002  0.380970E+000  0.205724E+000  0.619030E+000  0.334276E+000  0.000000E+000
  0.931034E+000  0.000000E+000  0.689655E-001 -0.100000E+002 -0.100690E+002  0.380970E+000  0.205724E+000  0.619030E+000  0.334276E+000  0.000000E+000
  0.965517E+000  0.000000E+000  0.689655E-001 -0.100000E+002 -0.100690E+002  0.380970E+000  0.205724E+000  0.619030E+000  0.334276E+000  0.000000E+000
  0.100000E+001  0.000000E+000  0.689655E-001 -0.100000E+002 -0.100690E+002  0.380970E+000  0.205724E+000  0.619030E+000  0.334276E+000  0.000000E+000
  0.000000E+000  0.000000E+000  0.103448E+000 -0.100000E+002 -0.101034E+002  0.380540E+000  0.205492E+000  0.619460E+000  0.334508E+000  0.000000E+000
  0.344828E-001  0.000000E+000  0.103448E+000 -0.100000E+002 -0.101034E+002  0.380540E+000  0.205492E+000  0.619460E+000  0.334508E+000  0.000000E+000
  0.689655E-001  0.000000E+000  0.103448E+000 -0.100000E+002 -0.101034E+002  0.380540E+000  0.205492E+000  0.619460E+000  0.334508E+000  0.000000E+000
  0.103448E+000  0.000000E+000  0.103448E+000 -0.100000E+002 -0.101034E+002  0.380540E+000  0.205492E+000  0.619460E+000  0.334508E+000  0.000000E+000
  0.137931E+000  0.000000E+000  0.103448E+000 -0.100000E+002 -0.101034E+002  0.380540E+000  0.205492E+000  0.619460E+000  0.334508E+000  0.000000E+000
  0.172414E+000  0.000000E+000  0.103448E+000 -0.100000E+002 -0.101034E+002  0.380540E+000  0.205492E+000  0.619460E+000  0.334508E+000  0.000000E+000
  0.206897E+000  0.000000E+000  0.103448E+000 -0.100000E+002 -0.101034E+002  0.380540E+000  0.205492E+000  0.619460E+000  0.334508E+000  0.000000E+000
  0.241379E+000  0.000000E+000  0.103448E+000 -0.100000E+002 -0.101034E+002  0.380540E+000  0.205492E+000  0.619460E+000  0.334508E+000  0.000000E+000
  0.275862E+000  0.000000E+000  0.103448E+000 -0.100000E+002 -0.101034E+002  0.380540E+000  0.205492E+000  0.619460E+000  0.334508E+000  0.000000E+000
  0.310345E+000  0.000000E+000  0.103448E+000 -0.100000E+002 -0.101034E+002  0.380540E+000  0.205492E+000  0.619460E+000  0.334508E+000  0.000000E+000
  0.344828E+000  0.000000E+000  0.103448E+000 -0.100000E+002 -0.101034E+002  0.380540E+000  0.205492E+000  0.619460E+000  0.334508E+000  0.000000E+000
  0.379310E+000  0.000000E+000  0.103448E+000 -0.100000E+002 -0.101034E+002  0.380540E+000  0.205492E+000  0.619460E+000  0.334508E+000  0.000000E+000
  0.413793E+000  0.000000E+000  0.103448E+000 -0.100000E+002 -0.101034E+002  0.380540E+000  0.205492E+000  0.619460E+000  0.334508E+000  0.000000E+000
  0.448276E+000  0.000000E+000  0.103448E+000 -0.100000E+002 -0.101034E+002  0.380540E+000  0.205492E+000  0.619460E+000  0.334508E+000  0.000000E+000
  0.482759E+000  0.000000E+000  0.103448E+000 -0.100000E+002 -0.101034E+002  0.380540E+000  0.205492E+000  0.619460E+000  0.334508E+000  0.000000E+000
  0.517241E+000  0.000000E+000  0.103448E+000 -0.100000E+002 -0.101034E+002  0.380540E+000  0.205492E+000  0.619460E+000  0.334508E+000  0.000000E+000
  0.551724E+000  0.000000E+000  0.103448E+000 -0.100000E+002 -0.101034E+002  0.380540E+000  0.205492E+000  0.619460E+000  0.334508E+000  0.000000E+000
  0.586207E+000  0.000000E+000  0.103448E+000 -0.100000E+002 -0.101034E+002  0.380540E+000  0.205492E+000  0.619460E+000  0.334508E+000  0.000000E+000
  0.620690E+000  0.000000E+000  0.103448E+000 -0.100000E+002 -0.101034E+002  0.380540E+000  0.205492E+000  0.619460E+000  0.334508E+000  0.000000E+000
  0.655172E+000  0.000000E+000  0.103448E+000 -0.100000E+002 -0.101034E+002  0.380540E+000  0.205492E+000  0.619460E+000  0.334508E+000  0.000000E+000
  0.689655E+000  0.000000E+000  0.103448E+000 -0.100000E+002 -0.101034E+002  0.380540E+000  0.205492E+000  0.619460E+000  0.334508E+000  0.000000E+000
  0.724138E+000  0.000000E+000  0.103448E+000 -0.100000E+002 -0.101034E+002  0.380540E+000  0.205492E+000  0.619460E+000  0.334508E+000  0.000000E+000
  0.758621E+000  0.000000E+000  0.103448E+000 -0.100000E+002 -0.101034E+002  0.380540E+000  0.205492E+000  0.619460E+000  0.334508E+000  0.000000E+000
  0.793103E+000  0.000000E+000  0.103448E+000 -0.100000E+002 -0.101034E+002  0.380540E+000  0.205492E+000  0.619460E+000  0.334508E+000  0.000000E+000
  0.827586E+000  0.000000E+000  0.103448E+000 -0.100000E+002 -0.101034E+002  0.380540E+000  0.205492E+000  0.619460E+000  0.334508E+000  0.000000E+000
  0.862069E+000  0.000000E+000  0.103448E+000 -0.100000E+002 -0.101034E+002  0.380540E+000  0.205492E+000  0.619460E+000  0.334508E+000  0.000000E+000
  0.896552E+000  0.000000E+000  0.103448E+000 -0.100000E+002 -0.101034E+002  0.380540E+000  0.205492E+000  0.619460E+000  0.334508E+000  0.000000E+000
  0.931034E+000  0.000000E+000  0.103448E+000 -0.100000E+002 -0.101034E+002  0.380540E+000  0.205492E+000  0.619460E+000  0.334508E+000  0.000000E+000
  0.965517E+000  0.000000E+000  0.103448E+000 -0.100000E+002 -0.101034E+002  0.380540E+000  0.205492E+000  0.619460E+000  0.334508E+000  0.000000E+000
  0.100000E+001  0.000000E+000  0.103448E+000 -0.100000E+002 -0.101034E+002  0.380540E+000  0.205492E+000  0.619460E+000  0.334508E+000  0.000000E+000
  0.000000E+000  0.000000E+000  0.137931E+000 -0.100000E+002 -0.101379E+002  0.380112E+000  0.205261E+000  0.619888E+000  0.334739E+000  0.000000E+000
  0.344828E-001  0.000000E+000  0.137931E+000 -0.100000E+002 -0.101379E+002  0.380112E+000  0.205261E+000  0.619888E+000  0.334739E+000  0.000000E+000
  0.689655E-001  0.000000E+000  0.137931E+000 -0.100000E+002 -0.101379E+002  0.380112E+000  0.205261E+000  0.619888E+000  0.334739E+000  0.000000E+000
  0.103448E+000  0.000000E+000  0.137931E+000 -0.100000E+002 -0.101379E+002  0.380112E+000  0.205261E+000  0.619888E+000  0.334739E+000  0.000000E+000
  0.137931E+000  0.000000E+000  0.137931E+000 -0.100000E+002 -0.101379E+002  0.380112E+000  0.205261E+000  0.619888E+000  0.334739E+000  0.000000E+000
  0.172414E+000  0.000000E+000  0.137931E+000 -0.100000E+002 -0.101379E+002  0.380112E+000  0.205261E+000  0.619888E+000  0.334739E+000  0.000000E+000
  0.206897E+000  0.000000E+000  0.137931E+000 -0.100000E+002 -0.101379E+002  0.380112E+000  0.205261E+000  0.619888E+000  0.334739E+000  0.000000E+000
  0.241379E+000  0.000000E+000  0.137931E+000 -0.100000E+002 -0.101379E+002  0.380112E+000  0.205261E+000  0.619888E+000  0.334739E+000  0.000000E+000
  0.275862E+000  0.000000E+000  0.137931E+000 -0.100000E+002 -0.101379E+002  0.380112E+000  0.205261E+000  0.619888E+000  0.334739E+000  0.000000E+000
  0.310345E+000  0.000000E+000  0.137931E+000 -0.100000E+002 -0.101379E+002  0.380112E+000  0.205261E+000  0.619888E+000  0.334739E+000  0.000000E+000
  0.344828E+000  0.000000E+000  0.137931E+000 -0.100000E+002 -0.101379E+002  0.380112E+000  0.205261E+000  0.619888E+000  0.334739E+000  0.000000E+000
  0.379310E+000  0.000000E+000  0.137931E+000 -0.100000E+002 -0.101379E+002  0.380112E+000  0.205261E+000  0.619888E+000  0.334739E+000  0.000000E+000
  0.413793E+000  0.000000E+000  0.137931E+000 -0.100000E+002 -0.101379E+002  0.380112E+000  0.205261E+000  0.619888E+000  0.334739E+000  0.000000E+000
  0.448276E+000  0.000000E+000  0.137931E+000 -0.100000E+002 -0.101379E+002  0.380112E+000  0.205261E+000  0.619888E+000  0.334739E+000  0.000000E+000
  0.482759E+000  0.000000E+000  0.137931E+000 -0.100000E+002 -0.101379E+002  0.380112E+000  0.205261E+000  0.619888E+000  0.334739E+000  0.000000E+000
  0.517241E+000  0.000000E+000  0.137931E+000 -0.100000E+002 -0.101379E+002  0.380112E+000  0.205261E+000  0.619888E+000  0.334739E+000  0.000000E+000
  0.551724E+000  0.000000E+000  0.137931E+000 -0.100000E+002 -0.101379E+002  0.380112E+000  0.205261E+000  0.619888E+000  0.334739E+000  0.000000E+000
  0.586207E+000  0.000000E+000  0.137931E+000 -0.100000E+002 -0.101379E+002  0.380112E+000  0.205261E+000  0.619888E+000  0.334739E+000  0.000000E+000
  0.620690E+000  0.000000E+000  0.137931E+000 -0.100000E+002 -0.101379E+002  0.380112E+000  0.205261E+000  0.619888E+000  0.334739E+000  0.000000E+000
  0.655172E+000  0.000000E+000  0.137931E+000 -0.100000E+002 -0.101379E+002  0.380112E+000  0.205261E+000  0.619888E+000  0.334739E+000  0.000000E+000
  0.689655E+000  0.000000E+000  0.137931E+000 -0.100000E+002 -0.101379E+002  0.380112E+000  0.205261E+000  0.619888E+000  0.334739E+000  0.000000E+000
  0.724138E+000  0.000000E+000  0.137931E+000 -0.100000E+002 -0.101379E+002  0.380112E+000  0.205261E+000  0.619888E+000  0.334739E+000  0.000000E+000
  0.758621E+000  0.000000E+000  0.137931E+000 -0.100000E+002 -0.101379E+002  0.380112E+000  0.205261E+000  0.619888E+000  0.334739E+000  0.000000E+000
  0.793103E+000  0.000000E+000  0.137931E+000 -0.100000E+002 -0.101379E+002  0.380112E+000  0.205261E+000  0.619888E+000  0.334739E+000  0.000000E+000
  0.827586E+000  0.000000E+000  0.137931E+000 -0.100000E+002 -0.101379E+002  0.380112E+000  0.205261E+000  0.619888E+000  0.334739E+000  0.000000E+000
  0.862069E+000  0.000000E+000  0.137931E+000 -0.100000E+002 -0.101379E+002  0.380112E+000  0.205261E+000  0.619888E+000  0.334739E+000  0.000000E+000
  0.896552E+000  0.000000E+000  0.137931E+000 -0.100000E+002 -0.101379E+002  0.380112E+000  0.205261E+000  0.619888E+000  0.334739E+000  0.000000E+000
  0.931034E+000  0.000000E+000  0.137931E+000 -0.100000E+002 -0.101379E+002  0.380112E+000  0.205261E+000  0.619888E+000  0.334739E+000  0.000000E+000
  0.965517E+000  0.000000E+000  0.137931E+000 -0.100000E+002 -0.101379E+002  0.380112E+000  0.205261E+000  0.619888E+000  0.334739E+000  0.000000E+000
  0.100000E+001  0.000000E+000  0.137931E+000 -0.100000E+002 -0.101379E+002  0.380112E+000  0.205261E+000  0.619888E+000  0.334739E+000  0.000000E+000
  0.000000E+000  0.000000E+000  0.172414E+000 -0.100000E+002 -0.101724E+002  0.379687E+000  0.205031E+000  0.620313E+000  0.334969E+000  0.000000E+000
  0.344828E-001  0.000000E+000  0.172414E+000 -0.100000E+002 -0.101724E+002  0.379687E+000  0.205031E+000  0.620313E+000  0.334969E+000  0.000000E+000
  0.689655E-001  0.000000E+000  0.172414E+000 -0.100000E+002 -0.101724E+002  0.379687E+000  0.205031E+000  0.620313E+000  0.334969E+000  0.000000E+000
  0.103448E+000  0.000000E+000  0.172414E+000 -0.100000E+002 -0.101724E+002  0.379687E+000  0.205031E+000  0.620313E+000  0.334969E+000  0.000000E+000
  0.137931E+000  0.000000E+000  0.172414E+000 -0.100000E+002 -0.101724E+002  0.379687E+000  0.205031E+000  0.620313E+000  0.334969E+000  0.000000E+000
  0.172414E+000  0.000000E+000  0.172414E+000 -0.100000E+002 -0.101724E+002  0.379687E+000  0.205031E+000  0.620313E+000  0.334969E+000  0.000000E+000
  0.206897E+000  0.000000E+000  0.172414E+000 -0.100000E+002 -0.101724E+002  0.379687E+000  0.205031E+000  0.620313E+000  0.334969E+000  0.000000E+000
  0.241379E+000  0.000000E+000  0.172414E+000 -0.100000E+002 -0.101724E+002  0.379687E+000  0.205031E+000  0.620313E+000  0.334969E+000  0.000000E+000
  0.275862E+000  0.000000E+000  0.172414E+000 -0.100000E+002 -0.101724E+002  0.379687E+000  0.205031E+000  0.620313E+000  0.334969E+000  0.000000E+000
  0.310345E+000  0.000000E+000  0.172414E+000 -0.100000E+002 -0.101724E+002  0.379687E+000  0.205031E+000  0.620313E+000  0.334969E+000  0.000000E+000
  0.344828E+000  0.000000E+000  0.172414E+000 -0.100000E+002 -0.101724E+002  0.379687E+000  0.205031E+000  0.620313E+000  0.334969E+000  0.000000E+000
  0.379310E+000  0.000000E+000  0.172414E+000 -0.100000E+002 -0.101724E+002  0.379687E+000  0.205031E+000  0.620313E+000  0.334969E+000  0.000000E+000
  0.413793E+000  0.000000E+000  0.172414E+000 -0.100000E+002 -0.101724E+002  0.379687E+000  0.205031E+000  0.620313E+000  0.334969E+000  0.000000E+000
  0.448276E+000  0.000000E+000  0.172414E+000 -0.100000E+002 -0.101724E+002  0.379687E+000  0.205031E+000  0.620313E+000  0.334969E+000  0.000000E+000
  0.482759E+000  0.000000E+000  0.172414E+000 -0.100000E+002 -0.101724E+002  0.379687E+000  0.205031E+000  0.620313E+000  0.334969E+000  0.000000E+000
  0.517241E+000  0.000000E+000  0.172414E+000 -0.100000E+002 -0.101724E+002  0.379687E+000  0.205031E+000  0.620313E+000  0.334969E+000  0.000000E+000
  0.551724E+000  0.000000E+000  0.172414E+000 -0.100000E+002 -0.101724E+002  0.379687E+000  0.205031E+000  0.620313E+000  0.334969E+000  0.000000E+000
  0.586207E+000  0.000000E+000  0.172414E+000 -0.100000E+002 -0.101724E+002  0.379687E+000  0.205031E+000  0.620313E+000  0.334969E+000  0.000000E+000
  0.620690E+000  0.000000E+000  0.172414E+000 -0.100000E+002 -0.101724E+002  0.379687E+000  0.205031E+000  0.620313E+000  0.334969E+000  0.000000E+000
  0.655172E+000  0.000000E+000  0.172414E+000 -0.100000E+002 -0.101724E+002  0.379687E+000  0.205031E+000  0.620313E+000  0.334969E+000  0.000000E+000
  0.689655E+000  0.000000E+000  0.172414E+000 -0.100000E+002 -0.101724E+002  0.379687E+000  0.205031E+000  0.620313E+000  0.334969E+000  0.000000E+000
  0.724138E+000  0.000000E+000  0.172414E+000 -0.100000E+002 -0.101724E+002  0.379687E+000  0.205031E+000  0.620313E+000  0.334969E+000  0.000000E+000
  0.758621E+000  0.000000E+000  0.172414E+000 -0.100000E+002 -0.101724E+002  0.379687E+000  0.205031E+000  0.620313E+000  0.334969E+000  0.000000E+000
  0.793103E+000  0.000000E+000  0.172414E+000 -0.100000E+002 -0.101724E+002  0.379687E+000  0.205031E+000  0.620313E+000  0.334969E+000  0.000000E+000
  0.827586E+000  0.000000E+000  0.172414E+000 -0.100000E+002 -0.101724E+002  0.379687E+000  0.205031E+000  0.620313E+000  0.334969E+000  0.000000E+000
  0.862069E+000  0.000000E+000  0.172414E+000 -0.100000E+002 -0.101724E+002  0.379687E+000  0.205031E+000  0.620313E+000  0.334969E+000  0.000000E+000
  0.896552E+000  0.000000E+000  0.172414E+000 -0.100000E+002 -0.101724E+002  0.379687E+000  0.205031E+000  0.620313E+000  0.334969E+000  0.000000E+000
  0.931034E+000  0.000000E+000  0.172414E+000 -0.100000E+002 -0.101724E+002  0.379687E+000  0.205031E+000  0.620313E+000  0.334969E+000  0.000000E+000
  0.965517E+000  0.000000E+000  0.172414E+000 -0.100000E+002 -0.101724E+002  0.379687E+000  0.205031E+000  0.620313E+000  0.334969E+000  0.000000E+000
  0.100000E+001  0.000000E+000  0.172414E+000 -0.100000E+002 -0.101724E+002  0.379687E+000  0.205031E+000  0.620313E+000  0.334969E+000  0.000000E+000
  0.000000E+000  0.000000E+000  0.206897E+000 -0.100000E+002 -0.102069E+002  0.379263E+000  0.204802E+000  0.620737E+000  0.335198E+000  0.000000E+000
  0.344828E-001  0.000000E+000  0.206897E+000 -0.100000E+002 -0.102069E+002  0.379263E+000  0.204802E+000  0.620737E+000  0.335198E+000  0.000000E+000
  0.689655E-001  0.000000E+000  0.206897E+000 -0.100000E+002 -0.102069E+002  0.379263E+000  0.204802E+000  0.620737E+000  0.335198E+000  0.000000E+000
  0.103448E+000  0.000000E+000  0.206897E+000 -0.100000E+002 -0.102069E+002  0.379263E+000  0.204802E+000  0.620737E+000  0.335198E+000  0.000000E+000
  0.137931E+000  0.000000E+000  0.206897E+000 -0.100000E+002 -0.102069E+002  0.379263E+000  0.204802E+000  0.620737E+000  0.335198E+000  0.000000E+000
  0.172414E+000  0.000000E+000  0.206897E+000 -0.100000E+002 -0.102069E+002  0.379263E+000  0.204802E+000  0.620737E+000  0.335198E+000  0.000000E+000
  0.206897E+000  0.000000E+000  0.206897E+000 -0.100000E+002 -0.102069E+002  0.379263E+000  0.204802E+000  0.620737E+000  0.335198E+000  0.000000E+000
  0.241379E+000  0.000000E+000  0.206897E+000 -0.100000E+002 -0.102069E+002  0.379263E+000  0.204802E+000  0.620737E+000  0.335198E+000  0.000000E+000
  0.275862E+000  0.000000E+000  0.206897E+000 -0.100000E+002 -0.102069E+002  0.379263E+000  0.204802E+000  0.620737E+000  0.335198E+000  0.000000E+000
  0.310345E+000  0.000000E+000  0.206897E+000 -0.100000E+002 -0.102069E+002  0.379263E+000  0.204802E+000  0.620737E+000  0.335198E+000  0.000000E+000
  0.344828E+000  0.000000E+000  0.206897E+000 -0.100000E+002 -0.102069E+002  0.379263E+000  0.204802E+000  0.620737E+000  0.335198E+000  0.000000E+000
  0.379310E+000  0.000000E+000  0.206897E+000 -0.100000E+002 -0.102069E+002  0.379263E+000  0.204802E+000  0.620737E+000  0.335198E+000  0.000000E+000
  0.413793E+000  0.000000E+000  0.206897E+000 -0.100000E+002 -0.102069E+002  0.379263E+000  0.204802E+000  0.620737E+000  0.335198E+000  0.000000E+000
  0.448276E+000  0.000000E+000  0.206897E+000 -0.100000E+002 -0.102069E+002  0.379263E+000  0.204802E+000  0.620737E+000  0.335198E+000  0.000000E+000
  0.482759E+000  0.000000E+000  0.206897E+000 -0.100000E+002 -0.102069E+002  0.379263E+000  0.204802E+000  0.620737E+000  0.335198E+000  0.000000E+000
  0.517241E+000  0.000000E+000  0.206897E+000 -0.100000E+002 -0.102069E+002  0.379263E+000  0.204802E+000  0.620737E+000  0.335198E+000  0.000000E+000
  0.551724E+000  0.000000E+000  0.206897E+000 -0.100000E+002 -0.102069E+002  0.379263E+000  0.204802E+000  0.620737E+000  0.335198E+000  0.000000E+000