title = "dataset transp-updrld"
variables = "time", "delta t", "courant_max", "courant_num", "iter_ts","iter_vs","iter_rt", "ts_min"
zone t = "time step data", f=point
  1.00000E-10  1.00000E-10  0.00000E+00   0   1   1   0    none    
  6.00000E-10  5.00000E-10  0.00000E+00   0   1   1   0    varsat  
  3.10000E-09  2.50000E-09  0.00000E+00   0   1   1   0    varsat  
  1.56000E-08  1.25000E-08  0.00000E+00   0   1   2   0    varsat  
  7.81000E-08  6.25000E-08  0.00000E+00   0   1   2   0    varsat  
  3.90600E-07  3.12500E-07  0.00000E+00   0   1   2   0    varsat  
  1.95310E-06  1.56250E-06  0.00000E+00   0   1   2   0    varsat  
  9.76560E-06  7.81250E-06  0.00000E+00   0   1   2   0    varsat  
  4.88281E-05  3.90625E-05  0.00000E+00   0   1   3   0    varsat  
  2.44141E-04  1.95313E-04  0.00000E+00   0   1   3   0    varsat  
  1.22070E-03  9.76562E-04  0.00000E+00   0   1   3   0    varsat  
  6.10352E-03  4.88281E-03  0.00000E+00   0   1   4   0    varsat  
  3.05176E-02  2.44141E-02  0.00000E+00   0   1   5   0    varsat  
  1.52588E-01  1.22070E-01  0.00000E+00   0   1   5   0    varsat  
  5.81635E-01  4.29047E-01  0.00000E+00   0   1   6   0    varsat  
  1.00000E+00  4.18365E-01  0.00000E+00   0   1   5   0    varsat  
  2.00000E+00  1.00000E+00  0.00000E+00   0   1   9   0    varsat  
  2.59746E+00  5.97458E-01  0.00000E+00   0   1   8   0    varsat  
  3.00000E+00  4.02542E-01  0.00000E+00   0   1   5   0    varsat  
  4.00000E+00  1.00000E+00  0.00000E+00   0   1   6   0    varsat  
  5.00000E+00  1.00000E+00  0.00000E+00   0   1   5   0    varsat  
  6.00000E+00  1.00000E+00  0.00000E+00   0   1   4   0    varsat  
  7.00000E+00  1.00000E+00  0.00000E+00   0   1   4   0    varsat  
  8.00000E+00  1.00000E+00  0.00000E+00   0   1   4   0    varsat  
  9.00000E+00  1.00000E+00  0.00000E+00   0   1   4   0    varsat  
  1.00000E+01  1.00000E+00  0.00000E+00   0   1   4   0    varsat  
  1.10000E+01  1.00000E+00  0.00000E+00   0   1   4   0    varsat  
  1.20000E+01  1.00000E+00  0.00000E+00   0   1   4   0    varsat  
  1.30000E+01  1.00000E+00  0.00000E+00   0   1   4   0    varsat  
  1.40000E+01  1.00000E+00  0.00000E+00   0   1   4   0    varsat  
  1.50000E+01  1.00000E+00  0.00000E+00   0   1   3   0    varsat  
  1.60000E+01  1.00000E+00  0.00000E+00   0   1   3   0    varsat  
  1.70000E+01  1.00000E+00  0.00000E+00   0   1   3   0    varsat  
  1.80000E+01  1.00000E+00  0.00000E+00   0   1   3   0    varsat  
  1.90000E+01  1.00000E+00  0.00000E+00   0   1   3   0    varsat  
  2.00000E+01  1.00000E+00  0.00000E+00   0   1   3   0    varsat  
  2.10000E+01  1.00000E+00  0.00000E+00   0   1   5   0    varsat  
  2.20000E+01  1.00000E+00  0.00000E+00   0   1   5   0    varsat  
  2.30000E+01  1.00000E+00  0.00000E+00   0   1   4   0    varsat  
  2.40000E+01  1.00000E+00  0.00000E+00   0   1   7   0    varsat  
  2.50000E+01  1.00000E+00  0.00000E+00   0   1   5   0    varsat  
  2.60000E+01  1.00000E+00  0.00000E+00   0   1   8   0    varsat  
  2.70000E+01  1.00000E+00  0.00000E+00   0   1   7   0    varsat  
  2.80000E+01  1.00000E+00  0.00000E+00   0   1   6   0    varsat  
  2.90000E+01  1.00000E+00  0.00000E+00   0   1   5   0    varsat  
  3.00000E+01  1.00000E+00  0.00000E+00   0   1   5   0    varsat  
  3.10000E+01  1.00000E+00  0.00000E+00   0   1   6   0    varsat  
  3.20000E+01  1.00000E+00  0.00000E+00   0   1   4   0    varsat  
  3.30000E+01  1.00000E+00  0.00000E+00   0   1   5   0    varsat  
  3.40000E+01  1.00000E+00  0.00000E+00   0   1   4   0    varsat  
  3.50000E+01  1.00000E+00  0.00000E+00   0   1   4   0    varsat  
  3.60000E+01  1.00000E+00  0.00000E+00   0   1   4   0    varsat  
  3.70000E+01  1.00000E+00  0.00000E+00   0   1   4   0    varsat  
  3.80000E+01  1.00000E+00  0.00000E+00   0   1   4   0    varsat  
  3.90000E+01  1.00000E+00  0.00000E+00   0   1   4   0    varsat  
  4.00000E+01  1.00000E+00  0.00000E+00   0   1   4   0    varsat  
  4.10000E+01  1.00000E+00  0.00000E+00   0   1   4   0    varsat  
  4.20000E+01  1.00000E+00  0.00000E+00   0   1   4   0    varsat  
  4.30000E+01  1.00000E+00  0.00000E+00   0   1   4   0    varsat  
  4.40000E+01  1.00000E+00  0.00000E+00   0   1   4   0    varsat  
  4.50000E+01  1.00000E+00  0.00000E+00   0   1   4   0    varsat  
  4.60000E+01  1.00000E+00  0.00000E+00   0   1   4   0    varsat  
  4.70000E+01  1.00000E+00  0.00000E+00   0   1   4   0    varsat  
  4.80000E+01  1.00000E+00  0.00000E+00   0   1   9   0    varsat  
  4.90000E+01  1.00000E+00  0.00000E+00   0   1   5   0    varsat  
  5.00000E+01  1.00000E+00  0.00000E+00   0   1   5   0    varsat  
  5.10000E+01  1.00000E+00  0.00000E+00   0   1   5   0    varsat  
  5.20000E+01  1.00000E+00  0.00000E+00   0   1   5   0    varsat  
  5.30000E+01  1.00000E+00  0.00000E+00   0   1   5   0    varsat  
  5.40000E+01  1.00000E+00  0.00000E+00   0   1   5   0    varsat  
  5.50000E+01  1.00000E+00  0.00000E+00   0   1   4   0    varsat  
  5.60000E+01  1.00000E+00  0.00000E+00   0   1   4   0    varsat  
  5.70000E+01  1.00000E+00  0.00000E+00   0   1   4   0    varsat  
  5.80000E+01  1.00000E+00  0.00000E+00   0   1   4   0    varsat  
  5.90000E+01  1.00000E+00  0.00000E+00   0   1   4   0    varsat  
  6.00000E+01  1.00000E+00  0.00000E+00   0   1   5   0    varsat  
  6.10000E+01  1.00000E+00  0.00000E+00   0   1   5   0    varsat  
  6.20000E+01  1.00000E+00  0.00000E+00   0   1   5   0    varsat  
  6.30000E+01  1.00000E+00  0.00000E+00   0   1   4   0    varsat  
  6.40000E+01  1.00000E+00  0.00000E+00   0   1  11   0    varsat  
  6.46922E+01  6.92179E-01  0.00000E+00   0   1   5   0    varsat  
  6.50000E+01  3.07821E-01  0.00000E+00   0   1   4   0    varsat  
  6.60000E+01  1.00000E+00  0.00000E+00   0   1  10   0    varsat  
  6.68049E+01  8.04892E-01  0.00000E+00   0   1   6   0    varsat  
  6.70000E+01  1.95108E-01  0.00000E+00   0   1   4   0    varsat  
  6.79755E+01  9.75538E-01  0.00000E+00   0   1   5   0    varsat  
  6.80000E+01  2.44618E-02  0.00000E+00   0   1   3   0    varsat  
  6.81223E+01  1.22309E-01  0.00000E+00   0   1   4   0    varsat  
  6.87339E+01  6.11546E-01  0.00000E+00   0   1   4   0    varsat  
  6.90000E+01  2.66145E-01  0.00000E+00   0   1   3   0    varsat  
  7.00000E+01  1.00000E+00  0.00000E+00   0   1   5   0    varsat  
  7.10000E+01  1.00000E+00  0.00000E+00   0   1   4   0    varsat  
  7.20000E+01  1.00000E+00  0.00000E+00   0   1   4   0    varsat  
  7.30000E+01  1.00000E+00  0.00000E+00   0   1   4   0    varsat  
  7.40000E+01  1.00000E+00  0.00000E+00   0   1   5   0    varsat  
  7.50000E+01  1.00000E+00  0.00000E+00   0   1   5   0    varsat  
  7.60000E+01  1.00000E+00  0.00000E+00   0   1   4   0    varsat  
  7.70000E+01  1.00000E+00  0.00000E+00   0   1   4   0    varsat  
  7.80000E+01  1.00000E+00  0.00000E+00   0   1   4   0    varsat  
  7.90000E+01  1.00000E+00  0.00000E+00   0   1   4   0    varsat  
  8.00000E+01  1.00000E+00  0.00000E+00   0   1   4   0    varsat  
  8.10000E+01  1.00000E+00  0.00000E+00   0   1   4   0    varsat  
  8.20000E+01  1.00000E+00  0.00000E+00   0   1   4   0    varsat  
  8.30000E+01  1.00000E+00  0.00000E+00   0   1   4   0    varsat  
  8.40000E+01  1.00000E+00  0.00000E+00   0   1   4   0    varsat  
  8.50000E+01  1.00000E+00  0.00000E+00   0   1   4   0    varsat  
  8.60000E+01  1.00000E+00  0.00000E+00   0   1   4   0    varsat  
  8.70000E+01  1.00000E+00  0.00000E+00   0   1   4   0    varsat  
  8.80000E+01  1.00000E+00  0.00000E+00   0   1   4   0    varsat  
  8.90000E+01  1.00000E+00  0.00000E+00   0   1   4   0    varsat  
  9.00000E+01  1.00000E+00  0.00000E+00   0   1   4   0    varsat  
  9.10000E+01  1.00000E+00  0.00000E+00   0   1   4   0    varsat  
  9.20000E+01  1.00000E+00  0.00000E+00   0   1   3   0    varsat  
  9.30000E+01  1.00000E+00  0.00000E+00   0   1   4   0    varsat  
  9.40000E+01  1.00000E+00  0.00000E+00   0   1   3   0    varsat  
  9.50000E+01  1.00000E+00  0.00000E+00   0   1   3   0    varsat  
  9.60000E+01  1.00000E+00  0.00000E+00   0   1   3   0    varsat  
  9.70000E+01  1.00000E+00  0.00000E+00   0   1  10   0    varsat  
  9.80000E+01  1.00000E+00  0.00000E+00   0   1   5   0    varsat  
  9.90000E+01  1.00000E+00  0.00000E+00   0   1   5   0    varsat  
  1.00000E+02  1.00000E+00  0.00000E+00   0   1   4   0    varsat  
  1.01000E+02  1.00000E+00  0.00000E+00   0   1   4   0    varsat  
  1.02000E+02  1.00000E+00  0.00000E+00   0   1   4   0    varsat  
  1.03000E+02  1.00000E+00  0.00000E+00   0   1   4   0    varsat  
  1.04000E+02  1.00000E+00  0.00000E+00   0   1   4   0    varsat  
  1.05000E+02  1.00000E+00  0.00000E+00   0   1   4   0    varsat  
  1.06000E+02  1.00000E+00  0.00000E+00   0   1   4   0    varsat  
  1.07000E+02  1.00000E+00  0.00000E+00   0   1  11   0    varsat  
  1.07992E+02  9.92435E-01  0.00000E+00   0   1   6   0    varsat  
  1.08000E+02  7.56483E-03  0.00000E+00   0   1   3   0    varsat  
  1.08038E+02  3.78242E-02  0.00000E+00   0   1   3   0    varsat  
  1.08227E+02  1.89121E-01  0.00000E+00   0   1   4   0    varsat  
  1.09000E+02  7.73055E-01  0.00000E+00   0   1   4   0    varsat  
  1.10000E+02  1.00000E+00  0.00000E+00   0   1   4   0    varsat  
  1.11000E+02  1.00000E+00  0.00000E+00   0   1   4   0    varsat  
  1.12000E+02  1.00000E+00  0.00000E+00   0   1   4   0    varsat  
  1.13000E+02  1.00000E+00  0.00000E+00   0   1   4   0    varsat  
  1.14000E+02  1.00000E+00  0.00000E+00   0   1   4   0    varsat  
  1.15000E+02  1.00000E+00  0.00000E+00   0   1   4   0    varsat  
  1.16000E+02  1.00000E+00  0.00000E+00   0   1   4   0    varsat  
  1.17000E+02  1.00000E+00  0.00000E+00   0   1   4   0    varsat  
  1.18000E+02  1.00000E+00  0.00000E+00   0   1   4   0    varsat  
  1.19000E+02  1.00000E+00  0.00000E+00   0   1   4   0    varsat  
  1.20000E+02  1.00000E+00  0.00000E+00   0   1   4   0    varsat  
  1.21000E+02  1.00000E+00  0.00000E+00   0   1   3   0    varsat  
  1.22000E+02  1.00000E+00  0.00000E+00   0   1   3   0    varsat  
  1.23000E+02  1.00000E+00  0.00000E+00   0   1   4   0    varsat  
  1.24000E+02  1.00000E+00  0.00000E+00   0   1   4   0    varsat  
  1.25000E+02  1.00000E+00  0.00000E+00   0   1   4   0    varsat  
  1.26000E+02  1.00000E+00  0.00000E+00   0   1   4   0    varsat  
  1.27000E+02  1.00000E+00  0.00000E+00   0   1   3   0    varsat  
  1.28000E+02  1.00000E+00  0.00000E+00   0   1   3   0    varsat  
  1.29000E+02  1.00000E+00  0.00000E+00   0   1   3   0    varsat  
  1.30000E+02  1.00000E+00  0.00000E+00   0   1   3   0    varsat  
  1.31000E+02  1.00000E+00  0.00000E+00   0   1   3   0    varsat  
  1.32000E+02  1.00000E+00  0.00000E+00   0   1   3   0    varsat  
  1.33000E+02  1.00000E+00  0.00000E+00   0   1   3   0    varsat  
  1.34000E+02  1.00000E+00  0.00000E+00   0   1   6   0    varsat  
  1.35000E+02  1.00000E+00  0.00000E+00   0   1   7   0    varsat  
  1.36000E+02  1.00000E+00  0.00000E+00   0   1   6   0    varsat  
  1.37000E+02  1.00000E+00  0.00000E+00   0   1   4   0    varsat  
  1.38000E+02  1.00000E+00  0.00000E+00   0   1   4   0    varsat  
  1.38500E+02  5.00000E-01  0.00000E+00   0   1  10   0    varsat  
  1.38823E+02  3.23111E-01  0.00000E+00   0   1   5   0    varsat  
  1.39000E+02  1.76889E-01  0.00000E+00   0   1   4   0    varsat  
  1.39748E+02  7.47564E-01  0.00000E+00   0   1   6   0    varsat  
  1.40000E+02  2.52436E-01  0.00000E+00   0   1   4   0    varsat  
  1.41000E+02  1.00000E+00  0.00000E+00   0   1   5   0    varsat  
  1.42000E+02  1.00000E+00  0.00000E+00   0   1   5   0    varsat  
  1.43000E+02  1.00000E+00  0.00000E+00   0   1   4   0    varsat  
  1.44000E+02  1.00000E+00  0.00000E+00   0   1   4   0    varsat  
  1.45000E+02  1.00000E+00  0.00000E+00   0   1   4   0    varsat  
  1.46000E+02  1.00000E+00  0.00000E+00   0   1   4   0    varsat  
  1.47000E+02  1.00000E+00  0.00000E+00   0   1   5   0    varsat  
  1.48000E+02  1.00000E+00  0.00000E+00   0   1   5   0    varsat  
  1.49000E+02  1.00000E+00  0.00000E+00   0   1   4   0    varsat  
  1.50000E+02  1.00000E+00  0.00000E+00   0   1   4   0    varsat  
