title = "dataset transp-updrld"
variables = "x", "y", "z", "vx", "vy", "vz"
zone t = "velocities, solution time =  7.000E+00 days        " i =  499, j =    1, k =    1,  f=point
  0.000000E+000  0.000000E+000  0.100200E-002  0.000000E+000  0.000000E+000 -0.456341E-002
  0.000000E+000  0.000000E+000  0.300601E-002  0.000000E+000  0.000000E+000 -0.456220E-002
  0.000000E+000  0.000000E+000  0.501002E-002  0.000000E+000  0.000000E+000 -0.456021E-002
  0.000000E+000  0.000000E+000  0.701403E-002  0.000000E+000  0.000000E+000 -0.455770E-002
  0.000000E+000  0.000000E+000  0.901804E-002  0.000000E+000  0.000000E+000 -0.455480E-002
  0.000000E+000  0.000000E+000  0.110220E-001  0.000000E+000  0.000000E+000 -0.455160E-002
  0.000000E+000  0.000000E+000  0.130261E-001  0.000000E+000  0.000000E+000 -0.454815E-002
  0.000000E+000  0.000000E+000  0.150301E-001  0.000000E+000  0.000000E+000 -0.454449E-002
  0.000000E+000  0.000000E+000  0.170341E-001  0.000000E+000  0.000000E+000 -0.454065E-002
  0.000000E+000  0.000000E+000  0.190381E-001  0.000000E+000  0.000000E+000 -0.453664E-002
  0.000000E+000  0.000000E+000  0.210421E-001  0.000000E+000  0.000000E+000 -0.453249E-002
  0.000000E+000  0.000000E+000  0.230461E-001  0.000000E+000  0.000000E+000 -0.452821E-002
  0.000000E+000  0.000000E+000  0.250501E-001  0.000000E+000  0.000000E+000 -0.452381E-002
  0.000000E+000  0.000000E+000  0.270541E-001  0.000000E+000  0.000000E+000 -0.451930E-002
  0.000000E+000  0.000000E+000  0.290581E-001  0.000000E+000  0.000000E+000 -0.451468E-002
  0.000000E+000  0.000000E+000  0.310621E-001  0.000000E+000  0.000000E+000 -0.450996E-002
  0.000000E+000  0.000000E+000  0.330661E-001  0.000000E+000  0.000000E+000 -0.450515E-002
  0.000000E+000  0.000000E+000  0.350701E-001  0.000000E+000  0.000000E+000 -0.450025E-002
  0.000000E+000  0.000000E+000  0.370741E-001  0.000000E+000  0.000000E+000 -0.449527E-002
  0.000000E+000  0.000000E+000  0.390782E-001  0.000000E+000  0.000000E+000 -0.449022E-002
  0.000000E+000  0.000000E+000  0.410822E-001  0.000000E+000  0.000000E+000 -0.448508E-002
  0.000000E+000  0.000000E+000  0.430862E-001  0.000000E+000  0.000000E+000 -0.447987E-002
  0.000000E+000  0.000000E+000  0.450902E-001  0.000000E+000  0.000000E+000 -0.447460E-002
  0.000000E+000  0.000000E+000  0.470942E-001  0.000000E+000  0.000000E+000 -0.446926E-002
  0.000000E+000  0.000000E+000  0.490982E-001  0.000000E+000  0.000000E+000 -0.446385E-002
  0.000000E+000  0.000000E+000  0.511022E-001  0.000000E+000  0.000000E+000 -0.445838E-002
  0.000000E+000  0.000000E+000  0.531062E-001  0.000000E+000  0.000000E+000 -0.445285E-002
  0.000000E+000  0.000000E+000  0.551102E-001  0.000000E+000  0.000000E+000 -0.444726E-002
  0.000000E+000  0.000000E+000  0.571142E-001  0.000000E+000  0.000000E+000 -0.444162E-002
  0.000000E+000  0.000000E+000  0.591182E-001  0.000000E+000  0.000000E+000 -0.443592E-002
  0.000000E+000  0.000000E+000  0.611222E-001  0.000000E+000  0.000000E+000 -0.443017E-002
  0.000000E+000  0.000000E+000  0.631263E-001  0.000000E+000  0.000000E+000 -0.442437E-002
  0.000000E+000  0.000000E+000  0.651303E-001  0.000000E+000  0.000000E+000 -0.441851E-002
  0.000000E+000  0.000000E+000  0.671343E-001  0.000000E+000  0.000000E+000 -0.441261E-002
  0.000000E+000  0.000000E+000  0.691383E-001  0.000000E+000  0.000000E+000 -0.440666E-002
  0.000000E+000  0.000000E+000  0.711423E-001  0.000000E+000  0.000000E+000 -0.440066E-002
  0.000000E+000  0.000000E+000  0.731463E-001  0.000000E+000  0.000000E+000 -0.439461E-002
  0.000000E+000  0.000000E+000  0.751503E-001  0.000000E+000  0.000000E+000 -0.438852E-002
  0.000000E+000  0.000000E+000  0.771543E-001  0.000000E+000  0.000000E+000 -0.438239E-002
  0.000000E+000  0.000000E+000  0.791583E-001  0.000000E+000  0.000000E+000 -0.437621E-002
  0.000000E+000  0.000000E+000  0.811623E-001  0.000000E+000  0.000000E+000 -0.436999E-002
  0.000000E+000  0.000000E+000  0.831663E-001  0.000000E+000  0.000000E+000 -0.436373E-002
  0.000000E+000  0.000000E+000  0.851703E-001  0.000000E+000  0.000000E+000 -0.435743E-002
  0.000000E+000  0.000000E+000  0.871743E-001  0.000000E+000  0.000000E+000 -0.435108E-002
  0.000000E+000  0.000000E+000  0.891784E-001  0.000000E+000  0.000000E+000 -0.434470E-002
  0.000000E+000  0.000000E+000  0.911824E-001  0.000000E+000  0.000000E+000 -0.433828E-002
  0.000000E+000  0.000000E+000  0.931864E-001  0.000000E+000  0.000000E+000 -0.433182E-002
  0.000000E+000  0.000000E+000  0.951904E-001  0.000000E+000  0.000000E+000 -0.432532E-002
  0.000000E+000  0.000000E+000  0.971944E-001  0.000000E+000  0.000000E+000 -0.431879E-002
  0.000000E+000  0.000000E+000  0.991984E-001  0.000000E+000  0.000000E+000 -0.431222E-002
  0.000000E+000  0.000000E+000  0.101202E+000  0.000000E+000  0.000000E+000 -0.430562E-002
  0.000000E+000  0.000000E+000  0.103206E+000  0.000000E+000  0.000000E+000 -0.429898E-002
  0.000000E+000  0.000000E+000  0.105210E+000  0.000000E+000  0.000000E+000 -0.429230E-002
  0.000000E+000  0.000000E+000  0.107214E+000  0.000000E+000  0.000000E+000 -0.428559E-002
  0.000000E+000  0.000000E+000  0.109218E+000  0.000000E+000  0.000000E+000 -0.427885E-002
  0.000000E+000  0.000000E+000  0.111222E+000  0.000000E+000  0.000000E+000 -0.427207E-002
  0.000000E+000  0.000000E+000  0.113226E+000  0.000000E+000  0.000000E+000 -0.426526E-002
  0.000000E+000  0.000000E+000  0.115230E+000  0.000000E+000  0.000000E+000 -0.425842E-002
  0.000000E+000  0.000000E+000  0.117234E+000  0.000000E+000  0.000000E+000 -0.425154E-002
  0.000000E+000  0.000000E+000  0.119238E+000  0.000000E+000  0.000000E+000 -0.424464E-002
  0.000000E+000  0.000000E+000  0.121242E+000  0.000000E+000  0.000000E+000 -0.423770E-002
  0.000000E+000  0.000000E+000  0.123246E+000  0.000000E+000  0.000000E+000 -0.423073E-002
  0.000000E+000  0.000000E+000  0.125251E+000  0.000000E+000  0.000000E+000 -0.422373E-002
  0.000000E+000  0.000000E+000  0.127255E+000  0.000000E+000  0.000000E+000 -0.421670E-002
  0.000000E+000  0.000000E+000  0.129259E+000  0.000000E+000  0.000000E+000 -0.420964E-002
  0.000000E+000  0.000000E+000  0.131263E+000  0.000000E+000  0.000000E+000 -0.420255E-002
  0.000000E+000  0.000000E+000  0.133267E+000  0.000000E+000  0.000000E+000 -0.419543E-002
  0.000000E+000  0.000000E+000  0.135271E+000  0.000000E+000  0.000000E+000 -0.418828E-002
  0.000000E+000  0.000000E+000  0.137275E+000  0.000000E+000  0.000000E+000 -0.418111E-002
  0.000000E+000  0.000000E+000  0.139279E+000  0.000000E+000  0.000000E+000 -0.417390E-002
  0.000000E+000  0.000000E+000  0.141283E+000  0.000000E+000  0.000000E+000 -0.416667E-002
  0.000000E+000  0.000000E+000  0.143287E+000  0.000000E+000  0.000000E+000 -0.415941E-002
  0.000000E+000  0.000000E+000  0.145291E+000  0.000000E+000  0.000000E+000 -0.415212E-002
  0.000000E+000  0.000000E+000  0.147295E+000  0.000000E+000  0.000000E+000 -0.414480E-002
  0.000000E+000  0.000000E+000  0.149299E+000  0.000000E+000  0.000000E+000 -0.413746E-002
  0.000000E+000  0.000000E+000  0.151303E+000  0.000000E+000  0.000000E+000 -0.413009E-002
  0.000000E+000  0.000000E+000  0.153307E+000  0.000000E+000  0.000000E+000 -0.412269E-002
  0.000000E+000  0.000000E+000  0.155311E+000  0.000000E+000  0.000000E+000 -0.411526E-002
  0.000000E+000  0.000000E+000  0.157315E+000  0.000000E+000  0.000000E+000 -0.410781E-002
  0.000000E+000  0.000000E+000  0.159319E+000  0.000000E+000  0.000000E+000 -0.410034E-002
  0.000000E+000  0.000000E+000  0.161323E+000  0.000000E+000  0.000000E+000 -0.409284E-002
  0.000000E+000  0.000000E+000  0.163327E+000  0.000000E+000  0.000000E+000 -0.408531E-002
  0.000000E+000  0.000000E+000  0.165331E+000  0.000000E+000  0.000000E+000 -0.407776E-002
  0.000000E+000  0.000000E+000  0.167335E+000  0.000000E+000  0.000000E+000 -0.407018E-002
  0.000000E+000  0.000000E+000  0.169339E+000  0.000000E+000  0.000000E+000 -0.406258E-002
  0.000000E+000  0.000000E+000  0.171343E+000  0.000000E+000  0.000000E+000 -0.405495E-002
  0.000000E+000  0.000000E+000  0.173347E+000  0.000000E+000  0.000000E+000 -0.404730E-002
  0.000000E+000  0.000000E+000  0.175351E+000  0.000000E+000  0.000000E+000 -0.403962E-002
  0.000000E+000  0.000000E+000  0.177355E+000  0.000000E+000  0.000000E+000 -0.403192E-002
  0.000000E+000  0.000000E+000  0.179359E+000  0.000000E+000  0.000000E+000 -0.402419E-002
  0.000000E+000  0.000000E+000  0.181363E+000  0.000000E+000  0.000000E+000 -0.401644E-002
  0.000000E+000  0.000000E+000  0.183367E+000  0.000000E+000  0.000000E+000 -0.400867E-002
  0.000000E+000  0.000000E+000  0.185371E+000  0.000000E+000  0.000000E+000 -0.400088E-002
  0.000000E+000  0.000000E+000  0.187375E+000  0.000000E+000  0.000000E+000 -0.399306E-002
  0.000000E+000  0.000000E+000  0.189379E+000  0.000000E+000  0.000000E+000 -0.398521E-002
  0.000000E+000  0.000000E+000  0.191383E+000  0.000000E+000  0.000000E+000 -0.397735E-002
  0.000000E+000  0.000000E+000  0.193387E+000  0.000000E+000  0.000000E+000 -0.396946E-002
  0.000000E+000  0.000000E+000  0.195391E+000  0.000000E+000  0.000000E+000 -0.396155E-002
  0.000000E+000  0.000000E+000  0.197395E+000  0.000000E+000  0.000000E+000 -0.395362E-002
  0.000000E+000  0.000000E+000  0.199399E+000  0.000000E+000  0.000000E+000 -0.394566E-002
  0.000000E+000  0.000000E+000  0.201403E+000  0.000000E+000  0.000000E+000 -0.393768E-002
  0.000000E+000  0.000000E+000  0.203407E+000  0.000000E+000  0.000000E+000 -0.392968E-002
  0.000000E+000  0.000000E+000  0.205411E+000  0.000000E+000  0.000000E+000 -0.392166E-002
  0.000000E+000  0.000000E+000  0.207415E+000  0.000000E+000  0.000000E+000 -0.391361E-002
  0.000000E+000  0.000000E+000  0.209419E+000  0.000000E+000  0.000000E+000 -0.390555E-002
  0.000000E+000  0.000000E+000  0.211423E+000  0.000000E+000  0.000000E+000 -0.389746E-002
  0.000000E+000  0.000000E+000  0.213427E+000  0.000000E+000  0.000000E+000 -0.388935E-002
  0.000000E+000  0.000000E+000  0.215431E+000  0.000000E+000  0.000000E+000 -0.388122E-002
  0.000000E+000  0.000000E+000  0.217435E+000  0.000000E+000  0.000000E+000 -0.387307E-002
  0.000000E+000  0.000000E+000  0.219439E+000  0.000000E+000  0.000000E+000 -0.386489E-002
  0.000000E+000  0.000000E+000  0.221443E+000  0.000000E+000  0.000000E+000 -0.385670E-002
  0.000000E+000  0.000000E+000  0.223447E+000  0.000000E+000  0.000000E+000 -0.384849E-002
  0.000000E+000  0.000000E+000  0.225451E+000  0.000000E+000  0.000000E+000 -0.384025E-002
  0.000000E+000  0.000000E+000  0.227455E+000  0.000000E+000  0.000000E+000 -0.383199E-002
  0.000000E+000  0.000000E+000  0.229459E+000  0.000000E+000  0.000000E+000 -0.382372E-002
  0.000000E+000  0.000000E+000  0.231463E+000  0.000000E+000  0.000000E+000 -0.381542E-002
  0.000000E+000  0.000000E+000  0.233467E+000  0.000000E+000  0.000000E+000 -0.380710E-002
  0.000000E+000  0.000000E+000  0.235471E+000  0.000000E+000  0.000000E+000 -0.379877E-002
  0.000000E+000  0.000000E+000  0.237475E+000  0.000000E+000  0.000000E+000 -0.379041E-002
  0.000000E+000  0.000000E+000  0.239479E+000  0.000000E+000  0.000000E+000 -0.378203E-002
  0.000000E+000  0.000000E+000  0.241483E+000  0.000000E+000  0.000000E+000 -0.377364E-002
  0.000000E+000  0.000000E+000  0.243487E+000  0.000000E+000  0.000000E+000 -0.376522E-002
  0.000000E+000  0.000000E+000  0.245491E+000  0.000000E+000  0.000000E+000 -0.375678E-002
  0.000000E+000  0.000000E+000  0.247495E+000  0.000000E+000  0.000000E+000 -0.374833E-002
  0.000000E+000  0.000000E+000  0.249499E+000  0.000000E+000  0.000000E+000 -0.373985E-002
  0.000000E+000  0.000000E+000  0.251503E+000  0.000000E+000  0.000000E+000 -0.373136E-002
  0.000000E+000  0.000000E+000  0.253507E+000  0.000000E+000  0.000000E+000 -0.372284E-002
  0.000000E+000  0.000000E+000  0.255511E+000  0.000000E+000  0.000000E+000 -0.371431E-002
  0.000000E+000  0.000000E+000  0.257515E+000  0.000000E+000  0.000000E+000 -0.370576E-002
  0.000000E+000  0.000000E+000  0.259519E+000  0.000000E+000  0.000000E+000 -0.369719E-002
  0.000000E+000  0.000000E+000  0.261523E+000  0.000000E+000  0.000000E+000 -0.368860E-002
  0.000000E+000  0.000000E+000  0.263527E+000  0.000000E+000  0.000000E+000 -0.367999E-002
  0.000000E+000  0.000000E+000  0.265531E+000  0.000000E+000  0.000000E+000 -0.367136E-002
  0.000000E+000  0.000000E+000  0.267535E+000  0.000000E+000  0.000000E+000 -0.366272E-002
  0.000000E+000  0.000000E+000  0.269539E+000  0.000000E+000  0.000000E+000 -0.365405E-002
  0.000000E+000  0.000000E+000  0.271543E+000  0.000000E+000  0.000000E+000 -0.364537E-002
  0.000000E+000  0.000000E+000  0.273547E+000  0.000000E+000  0.000000E+000 -0.363667E-002
  0.000000E+000  0.000000E+000  0.275551E+000  0.000000E+000  0.000000E+000 -0.362795E-002
  0.000000E+000  0.000000E+000  0.277555E+000  0.000000E+000  0.000000E+000 -0.361922E-002
  0.000000E+000  0.000000E+000  0.279559E+000  0.000000E+000  0.000000E+000 -0.361046E-002
  0.000000E+000  0.000000E+000  0.281563E+000  0.000000E+000  0.000000E+000 -0.360169E-002
  0.000000E+000  0.000000E+000  0.283567E+000  0.000000E+000  0.000000E+000 -0.359290E-002
  0.000000E+000  0.000000E+000  0.285571E+000  0.000000E+000  0.000000E+000 -0.358409E-002
  0.000000E+000  0.000000E+000  0.287575E+000  0.000000E+000  0.000000E+000 -0.357527E-002
  0.000000E+000  0.000000E+000  0.289579E+000  0.000000E+000  0.000000E+000 -0.356642E-002
  0.000000E+000  0.000000E+000  0.291583E+000  0.000000E+000  0.000000E+000 -0.355756E-002
  0.000000E+000  0.000000E+000  0.293587E+000  0.000000E+000  0.000000E+000 -0.354869E-002
  0.000000E+000  0.000000E+000  0.295591E+000  0.000000E+000  0.000000E+000 -0.353979E-002
  0.000000E+000  0.000000E+000  0.297595E+000  0.000000E+000  0.000000E+000 -0.353088E-002
  0.000000E+000  0.000000E+000  0.299599E+000  0.000000E+000  0.000000E+000 -0.352195E-002
  0.000000E+000  0.000000E+000  0.301603E+000  0.000000E+000  0.000000E+000 -0.351300E-002
  0.000000E+000  0.000000E+000  0.303607E+000  0.000000E+000  0.000000E+000 -0.350404E-002
  0.000000E+000  0.000000E+000  0.305611E+000  0.000000E+000  0.000000E+000 -0.349506E-002
  0.000000E+000  0.000000E+000  0.307615E+000  0.000000E+000  0.000000E+000 -0.348606E-002
  0.000000E+000  0.000000E+000  0.309619E+000  0.000000E+000  0.000000E+000 -0.347705E-002
  0.000000E+000  0.000000E+000  0.311623E+000  0.000000E+000  0.000000E+000 -0.346802E-002
  0.000000E+000  0.000000E+000  0.313627E+000  0.000000E+000  0.000000E+000 -0.345897E-002
  0.000000E+000  0.000000E+000  0.315631E+000  0.000000E+000  0.000000E+000 -0.344991E-002
  0.000000E+000  0.000000E+000  0.317635E+000  0.000000E+000  0.000000E+000 -0.344083E-002
  0.000000E+000  0.000000E+000  0.319639E+000  0.000000E+000  0.000000E+000 -0.343173E-002
  0.000000E+000  0.000000E+000  0.321643E+000  0.000000E+000  0.000000E+000 -0.342262E-002
  0.000000E+000  0.000000E+000  0.323647E+000  0.000000E+000  0.000000E+000 -0.341349E-002
  0.000000E+000  0.000000E+000  0.325651E+000  0.000000E+000  0.000000E+000 -0.340434E-002
  0.000000E+000  0.000000E+000  0.327655E+000  0.000000E+000  0.000000E+000 -0.339518E-002
  0.000000E+000  0.000000E+000  0.329659E+000  0.000000E+000  0.000000E+000 -0.338600E-002
  0.000000E+000  0.000000E+000  0.331663E+000  0.000000E+000  0.000000E+000 -0.337681E-002
  0.000000E+000  0.000000E+000  0.333667E+000  0.000000E+000  0.000000E+000 -0.336760E-002
  0.000000E+000  0.000000E+000  0.335671E+000  0.000000E+000  0.000000E+000 -0.335838E-002
  0.000000E+000  0.000000E+000  0.337675E+000  0.000000E+000  0.000000E+000 -0.334914E-002
  0.000000E+000  0.000000E+000  0.339679E+000  0.000000E+000  0.000000E+000 -0.333988E-002
  0.000000E+000  0.000000E+000  0.341683E+000  0.000000E+000  0.000000E+000 -0.333061E-002
  0.000000E+000  0.000000E+000  0.343687E+000  0.000000E+000  0.000000E+000 -0.332132E-002
  0.000000E+000  0.000000E+000  0.345691E+000  0.000000E+000  0.000000E+000 -0.331202E-002
  0.000000E+000  0.000000E+000  0.347695E+000  0.000000E+000  0.000000E+000 -0.330271E-002
  0.000000E+000  0.000000E+000  0.349699E+000  0.000000E+000  0.000000E+000 -0.329337E-002
  0.000000E+000  0.000000E+000  0.351703E+000  0.000000E+000  0.000000E+000 -0.328403E-002
  0.000000E+000  0.000000E+000  0.353707E+000  0.000000E+000  0.000000E+000 -0.327466E-002
  0.000000E+000  0.000000E+000  0.355711E+000  0.000000E+000  0.000000E+000 -0.326528E-002
  0.000000E+000  0.000000E+000  0.357715E+000  0.000000E+000  0.000000E+000 -0.325589E-002
  0.000000E+000  0.000000E+000  0.359719E+000  0.000000E+000  0.000000E+000 -0.324648E-002
  0.000000E+000  0.000000E+000  0.361723E+000  0.000000E+000  0.000000E+000 -0.323706E-002
  0.000000E+000  0.000000E+000  0.363727E+000  0.000000E+000  0.000000E+000 -0.322762E-002
  0.000000E+000  0.000000E+000  0.365731E+000  0.000000E+000  0.000000E+000 -0.321817E-002
  0.000000E+000  0.000000E+000  0.367735E+000  0.000000E+000  0.000000E+000 -0.320871E-002
  0.000000E+000  0.000000E+000  0.369739E+000  0.000000E+000  0.000000E+000 -0.319922E-002
  0.000000E+000  0.000000E+000  0.371743E+000  0.000000E+000  0.000000E+000 -0.318973E-002
  0.000000E+000  0.000000E+000  0.373747E+000  0.000000E+000  0.000000E+000 -0.318022E-002
  0.000000E+000  0.000000E+000  0.375752E+000  0.000000E+000  0.000000E+000 -0.317069E-002
  0.000000E+000  0.000000E+000  0.377756E+000  0.000000E+000  0.000000E+000 -0.316116E-002
  0.000000E+000  0.000000E+000  0.379760E+000  0.000000E+000  0.000000E+000 -0.315160E-002
  0.000000E+000  0.000000E+000  0.381764E+000  0.000000E+000  0.000000E+000 -0.314204E-002
  0.000000E+000  0.000000E+000  0.383768E+000  0.000000E+000  0.000000E+000 -0.313246E-002
  0.000000E+000  0.000000E+000  0.385772E+000  0.000000E+000  0.000000E+000 -0.312286E-002
  0.000000E+000  0.000000E+000  0.387776E+000  0.000000E+000  0.000000E+000 -0.311325E-002
  0.000000E+000  0.000000E+000  0.389780E+000  0.000000E+000  0.000000E+000 -0.310363E-002
  0.000000E+000  0.000000E+000  0.391784E+000  0.000000E+000  0.000000E+000 -0.309399E-002
  0.000000E+000  0.000000E+000  0.393788E+000  0.000000E+000  0.000000E+000 -0.308434E-002
  0.000000E+000  0.000000E+000  0.395792E+000  0.000000E+000  0.000000E+000 -0.307468E-002
  0.000000E+000  0.000000E+000  0.397796E+000  0.000000E+000  0.000000E+000 -0.306500E-002
  0.000000E+000  0.000000E+000  0.399800E+000  0.000000E+000  0.000000E+000 -0.305531E-002
  0.000000E+000  0.000000E+000  0.401804E+000  0.000000E+000  0.000000E+000 -0.304561E-002
  0.000000E+000  0.000000E+000  0.403808E+000  0.000000E+000  0.000000E+000 -0.303589E-002
  0.000000E+000  0.000000E+000  0.405812E+000  0.000000E+000  0.000000E+000 -0.302616E-002
  0.000000E+000  0.000000E+000  0.407816E+000  0.000000E+000  0.000000E+000 -0.301641E-002
  0.000000E+000  0.000000E+000  0.409820E+000  0.000000E+000  0.000000E+000 -0.300666E-002
  0.000000E+000  0.000000E+000  0.411824E+000  0.000000E+000  0.000000E+000 -0.299688E-002
  0.000000E+000  0.000000E+000  0.413828E+000  0.000000E+000  0.000000E+000 -0.298710E-002
  0.000000E+000  0.000000E+000  0.415832E+000  0.000000E+000  0.000000E+000 -0.297730E-002
  0.000000E+000  0.000000E+000  0.417836E+000  0.000000E+000  0.000000E+000 -0.296749E-002
  0.000000E+000  0.000000E+000  0.419840E+000  0.000000E+000  0.000000E+000 -0.295767E-002
  0.000000E+000  0.000000E+000  0.421844E+000  0.000000E+000  0.000000E+000 -0.294784E-002
  0.000000E+000  0.000000E+000  0.423848E+000  0.000000E+000  0.000000E+000 -0.293799E-002
  0.000000E+000  0.000000E+000  0.425852E+000  0.000000E+000  0.000000E+000 -0.292813E-002
  0.000000E+000  0.000000E+000  0.427856E+000  0.000000E+000  0.000000E+000 -0.291826E-002
  0.000000E+000  0.000000E+000  0.429860E+000  0.000000E+000  0.000000E+000 -0.290837E-002
  0.000000E+000  0.000000E+000  0.431864E+000  0.000000E+000  0.000000E+000 -0.289847E-002
  0.000000E+000  0.000000E+000  0.433868E+000  0.000000E+000  0.000000E+000 -0.288856E-002
  0.000000E+000  0.000000E+000  0.435872E+000  0.000000E+000  0.000000E+000 -0.287864E-002
  0.000000E+000  0.000000E+000  0.437876E+000  0.000000E+000  0.000000E+000 -0.286870E-002
  0.000000E+000  0.000000E+000  0.439880E+000  0.000000E+000  0.000000E+000 -0.285876E-002
  0.000000E+000  0.000000E+000  0.441884E+000  0.000000E+000  0.000000E+000 -0.284880E-002
  0.000000E+000  0.000000E+000  0.443888E+000  0.000000E+000  0.000000E+000 -0.283883E-002
  0.000000E+000  0.000000E+000  0.445892E+000  0.000000E+000  0.000000E+000 -0.282884E-002
  0.000000E+000  0.000000E+000  0.447896E+000  0.000000E+000  0.000000E+000 -0.281885E-002
  0.000000E+000  0.000000E+000  0.449900E+000  0.000000E+000  0.000000E+000 -0.280884E-002
  0.000000E+000  0.000000E+000  0.451904E+000  0.000000E+000  0.000000E+000 -0.279882E-002
  0.000000E+000  0.000000E+000  0.453908E+000  0.000000E+000  0.000000E+000 -0.278879E-002
  0.000000E+000  0.000000E+000  0.455912E+000  0.000000E+000  0.000000E+000 -0.277875E-002
  0.000000E+000  0.000000E+000  0.457916E+000  0.000000E+000  0.000000E+000 -0.276870E-002
  0.000000E+000  0.000000E+000  0.459920E+000  0.000000E+000  0.000000E+000 -0.275863E-002
  0.000000E+000  0.000000E+000  0.461924E+000  0.000000E+000  0.000000E+000 -0.274856E-002
  0.000000E+000  0.000000E+000  0.463928E+000  0.000000E+000  0.000000E+000 -0.273847E-002
  0.000000E+000  0.000000E+000  0.465932E+000  0.000000E+000  0.000000E+000 -0.272837E-002
  0.000000E+000  0.000000E+000  0.467936E+000  0.000000E+000  0.000000E+000 -0.271826E-002
  0.000000E+000  0.000000E+000  0.469940E+000  0.000000E+000  0.000000E+000 -0.270814E-002
  0.000000E+000  0.000000E+000  0.471944E+000  0.000000E+000  0.000000E+000 -0.269800E-002
  0.000000E+000  0.000000E+000  0.473948E+000  0.000000E+000  0.000000E+000 -0.268786E-002
  0.000000E+000  0.000000E+000  0.475952E+000  0.000000E+000  0.000000E+000 -0.267771E-002
  0.000000E+000  0.000000E+000  0.477956E+000  0.000000E+000  0.000000E+000 -0.266754E-002
  0.000000E+000  0.000000E+000  0.479960E+000  0.000000E+000  0.000000E+000 -0.265736E-002
  0.000000E+000  0.000000E+000  0.481964E+000  0.000000E+000  0.000000E+000 -0.264718E-002
  0.000000E+000  0.000000E+000  0.483968E+000  0.000000E+000  0.000000E+000 -0.263698E-002
  0.000000E+000  0.000000E+000  0.485972E+000  0.000000E+000  0.000000E+000 -0.262677E-002
  0.000000E+000  0.000000E+000  0.487976E+000  0.000000E+000  0.000000E+000 -0.261655E-002
  0.000000E+000  0.000000E+000  0.489980E+000  0.000000E+000  0.000000E+000 -0.260632E-002
  0.000000E+000  0.000000E+000  0.491984E+000  0.000000E+000  0.000000E+000 -0.259608E-002
  0.000000E+000  0.000000E+000  0.493988E+000  0.000000E+000  0.000000E+000 -0.258583E-002
  0.000000E+000  0.000000E+000  0.495992E+000  0.000000E+000  0.000000E+000 -0.257557E-002
  0.000000E+000  0.000000E+000  0.497996E+000  0.000000E+000  0.000000E+000 -0.256530E-002
  0.000000E+000  0.000000E+000  0.500000E+000  0.000000E+000  0.000000E+000 -0.255502E-002
  0.000000E+000  0.000000E+000  0.502004E+000  0.000000E+000  0.000000E+000 -0.254469E-002
  0.000000E+000  0.000000E+000  0.504008E+000  0.000000E+000  0.000000E+000 -0.253437E-002
  0.000000E+000  0.000000E+000  0.506012E+000  0.000000E+000  0.000000E+000 -0.252404E-002
  0.000000E+000  0.000000E+000  0.508016E+000  0.000000E+000  0.000000E+000 -0.251371E-002
  0.000000E+000  0.000000E+000  0.510020E+000  0.000000E+000  0.000000E+000 -0.250338E-002
  0.000000E+000  0.000000E+000  0.512024E+000  0.000000E+000  0.000000E+000 -0.249305E-002
  0.000000E+000  0.000000E+000  0.514028E+000  0.000000E+000  0.000000E+000 -0.248272E-002
  0.000000E+000  0.000000E+000  0.516032E+000  0.000000E+000  0.000000E+000 -0.247238E-002
  0.000000E+000  0.000000E+000  0.518036E+000  0.000000E+000  0.000000E+000 -0.246205E-002
  0.000000E+000  0.000000E+000  0.520040E+000  0.000000E+000  0.000000E+000 -0.245171E-002
  0.000000E+000  0.000000E+000  0.522044E+000  0.000000E+000  0.000000E+000 -0.244138E-002
  0.000000E+000  0.000000E+000  0.524048E+000  0.000000E+000  0.000000E+000 -0.243104E-002
  0.000000E+000  0.000000E+000  0.526052E+000  0.000000E+000  0.000000E+000 -0.242070E-002
  0.000000E+000  0.000000E+000  0.528056E+000  0.000000E+000  0.000000E+000 -0.241036E-002
  0.000000E+000  0.000000E+000  0.530060E+000  0.000000E+000  0.000000E+000 -0.240002E-002
  0.000000E+000  0.000000E+000  0.532064E+000  0.000000E+000  0.000000E+000 -0.238968E-002
  0.000000E+000  0.000000E+000  0.534068E+000  0.000000E+000  0.000000E+000 -0.237934E-002
  0.000000E+000  0.000000E+000  0.536072E+000  0.000000E+000  0.000000E+000 -0.236900E-002
  0.000000E+000  0.000000E+000  0.538076E+000  0.000000E+000  0.000000E+000 -0.235865E-002
  0.000000E+000  0.000000E+000  0.540080E+000  0.000000E+000  0.000000E+000 -0.234831E-002
  0.000000E+000  0.000000E+000  0.542084E+000  0.000000E+000  0.000000E+000 -0.233796E-002
  0.000000E+000  0.000000E+000  0.544088E+000  0.000000E+000  0.000000E+000 -0.232762E-002
  0.000000E+000  0.000000E+000  0.546092E+000  0.000000E+000  0.000000E+000 -0.231727E-002
  0.000000E+000  0.000000E+000  0.548096E+000  0.000000E+000  0.000000E+000 -0.230692E-002
  0.000000E+000  0.000000E+000  0.550100E+000  0.000000E+000  0.000000E+000 -0.229657E-002
  0.000000E+000  0.000000E+000  0.552104E+000  0.000000E+000  0.000000E+000 -0.228623E-002
  0.000000E+000  0.000000E+000  0.554108E+000  0.000000E+000  0.000000E+000 -0.227588E-002
  0.000000E+000  0.000000E+000  0.556112E+000  0.000000E+000  0.000000E+000 -0.226552E-002
  0.000000E+000  0.000000E+000  0.558116E+000  0.000000E+000  0.000000E+000 -0.225517E-002
  0.000000E+000  0.000000E+000  0.560120E+000  0.000000E+000  0.000000E+000 -0.224482E-002
  0.000000E+000  0.000000E+000  0.562124E+000  0.000000E+000  0.000000E+000 -0.223447E-002
  0.000000E+000  0.000000E+000  0.564128E+000  0.000000E+000  0.000000E+000 -0.222411E-002
  0.000000E+000  0.000000E+000  0.566132E+000  0.000000E+000  0.000000E+000 -0.221376E-002
  0.000000E+000  0.000000E+000  0.568136E+000  0.000000E+000  0.000000E+000 -0.220340E-002
  0.000000E+000  0.000000E+000  0.570140E+000  0.000000E+000  0.000000E+000 -0.219305E-002
  0.000000E+000  0.000000E+000  0.572144E+000  0.000000E+000  0.000000E+000 -0.218269E-002
  0.000000E+000  0.000000E+000  0.574148E+000  0.000000E+000  0.000000E+000 -0.217234E-002
  0.000000E+000  0.000000E+000  0.576152E+000  0.000000E+000  0.000000E+000 -0.216198E-002
  0.000000E+000  0.000000E+000  0.578156E+000  0.000000E+000  0.000000E+000 -0.215162E-002
  0.000000E+000  0.000000E+000  0.580160E+000  0.000000E+000  0.000000E+000 -0.214126E-002
  0.000000E+000  0.000000E+000  0.582164E+000  0.000000E+000  0.000000E+000 -0.213090E-002
  0.000000E+000  0.000000E+000  0.584168E+000  0.000000E+000  0.000000E+000 -0.212054E-002
  0.000000E+000  0.000000E+000  0.586172E+000  0.000000E+000  0.000000E+000 -0.211018E-002
  0.000000E+000  0.000000E+000  0.588176E+000  0.000000E+000  0.000000E+000 -0.209982E-002
  0.000000E+000  0.000000E+000  0.590180E+000  0.000000E+000  0.000000E+000 -0.208946E-002
  0.000000E+000  0.000000E+000  0.592184E+000  0.000000E+000  0.000000E+000 -0.207910E-002
  0.000000E+000  0.000000E+000  0.594188E+000  0.000000E+000  0.000000E+000 -0.206874E-002
  0.000000E+000  0.000000E+000  0.596192E+000  0.000000E+000  0.000000E+000 -0.205838E-002
  0.000000E+000  0.000000E+000  0.598196E+000  0.000000E+000  0.000000E+000 -0.204801E-002
  0.000000E+000  0.000000E+000  0.600200E+000  0.000000E+000  0.000000E+000 -0.203765E-002
  0.000000E+000  0.000000E+000  0.602204E+000  0.000000E+000  0.000000E+000 -0.202729E-002
  0.000000E+000  0.000000E+000  0.604208E+000  0.000000E+000  0.000000E+000 -0.201692E-002
  0.000000E+000  0.000000E+000  0.606212E+000  0.000000E+000  0.000000E+000 -0.200656E-002
  0.000000E+000  0.000000E+000  0.608216E+000  0.000000E+000  0.000000E+000 -0.199619E-002
  0.000000E+000  0.000000E+000  0.610220E+000  0.000000E+000  0.000000E+000 -0.198583E-002
  0.000000E+000  0.000000E+000  0.612224E+000  0.000000E+000  0.000000E+000 -0.197546E-002
  0.000000E+000  0.000000E+000  0.614228E+000  0.000000E+000  0.000000E+000 -0.196510E-002
  0.000000E+000  0.000000E+000  0.616232E+000  0.000000E+000  0.000000E+000 -0.195473E-002
  0.000000E+000  0.000000E+000  0.618236E+000  0.000000E+000  0.000000E+000 -0.194437E-002
  0.000000E+000  0.000000E+000  0.620240E+000  0.000000E+000  0.000000E+000 -0.193400E-002
  0.000000E+000  0.000000E+000  0.622244E+000  0.000000E+000  0.000000E+000 -0.192364E-002
  0.000000E+000  0.000000E+000  0.624248E+000  0.000000E+000  0.000000E+000 -0.191327E-002
  0.000000E+000  0.000000E+000  0.626253E+000  0.000000E+000  0.000000E+000 -0.190290E-002
  0.000000E+000  0.000000E+000  0.628257E+000  0.000000E+000  0.000000E+000 -0.189254E-002
  0.000000E+000  0.000000E+000  0.630261E+000  0.000000E+000  0.000000E+000 -0.188217E-002
  0.000000E+000  0.000000E+000  0.632265E+000  0.000000E+000  0.000000E+000 -0.187180E-002
  0.000000E+000  0.000000E+000  0.634269E+000  0.000000E+000  0.000000E+000 -0.186144E-002
  0.000000E+000  0.000000E+000  0.636273E+000  0.000000E+000  0.000000E+000 -0.185107E-002
  0.000000E+000  0.000000E+000  0.638277E+000  0.000000E+000  0.000000E+000 -0.184070E-002
  0.000000E+000  0.000000E+000  0.640281E+000  0.000000E+000  0.000000E+000 -0.183034E-002
  0.000000E+000  0.000000E+000  0.642285E+000  0.000000E+000  0.000000E+000 -0.181997E-002
  0.000000E+000  0.000000E+000  0.644289E+000  0.000000E+000  0.000000E+000 -0.180961E-002
  0.000000E+000  0.000000E+000  0.646293E+000  0.000000E+000  0.000000E+000 -0.179924E-002
  0.000000E+000  0.000000E+000  0.648297E+000  0.000000E+000  0.000000E+000 -0.178887E-002
  0.000000E+000  0.000000E+000  0.650301E+000  0.000000E+000  0.000000E+000 -0.177851E-002
  0.000000E+000  0.000000E+000  0.652305E+000  0.000000E+000  0.000000E+000 -0.176814E-002
  0.000000E+000  0.000000E+000  0.654309E+000  0.000000E+000  0.000000E+000 -0.175778E-002