title = "dataset transp-updrld"
variables = "x", "y", "z", "h_w", "p_w", "s_w", "theta_a", "s_a", "theta_g", "q_root"
zone t = "Flow variables, solution time =  4.000E+00 days        " i =  500, j =    1, k =    1,  f=point
  0.000000E+000  0.000000E+000  0.000000E+000 -0.100000E+003 -0.100000E+003  0.214462E+000  0.115809E+000  0.785538E+000  0.424191E+000  0.000000E+000
  0.000000E+000  0.000000E+000  0.200401E-002 -0.470317E+002 -0.470337E+002  0.248285E+000  0.134074E+000  0.751715E+000  0.405926E+000  0.000000E+000
  0.000000E+000  0.000000E+000  0.400802E-002 -0.322692E+002 -0.322732E+002  0.271277E+000  0.146490E+000  0.728723E+000  0.393510E+000  0.000000E+000
  0.000000E+000  0.000000E+000  0.601202E-002 -0.255623E+002 -0.255683E+002  0.288075E+000  0.155561E+000  0.711925E+000  0.384439E+000  0.000000E+000
  0.000000E+000  0.000000E+000  0.801603E-002 -0.217048E+002 -0.217128E+002  0.301211E+000  0.162654E+000  0.698789E+000  0.377346E+000  0.000000E+000
  0.000000E+000  0.000000E+000  0.100200E-001 -0.191688E+002 -0.191788E+002  0.311991E+000  0.168475E+000  0.688009E+000  0.371525E+000  0.000000E+000
  0.000000E+000  0.000000E+000  0.120240E-001 -0.173548E+002 -0.173669E+002  0.321147E+000  0.173420E+000  0.678853E+000  0.366580E+000  0.000000E+000
  0.000000E+000  0.000000E+000  0.140281E-001 -0.159807E+002 -0.159947E+002  0.329119E+000  0.177724E+000  0.670881E+000  0.362276E+000  0.000000E+000
  0.000000E+000  0.000000E+000  0.160321E-001 -0.148957E+002 -0.149117E+002  0.336191E+000  0.181543E+000  0.663809E+000  0.358457E+000  0.000000E+000
  0.000000E+000  0.000000E+000  0.180361E-001 -0.140120E+002 -0.140301E+002  0.342555E+000  0.184979E+000  0.657445E+000  0.355021E+000  0.000000E+000
  0.000000E+000  0.000000E+000  0.200401E-001 -0.132748E+002 -0.132948E+002  0.348348E+000  0.188108E+000  0.651652E+000  0.351892E+000  0.000000E+000
  0.000000E+000  0.000000E+000  0.220441E-001 -0.126477E+002 -0.126698E+002  0.353670E+000  0.190982E+000  0.646330E+000  0.349018E+000  0.000000E+000
  0.000000E+000  0.000000E+000  0.240481E-001 -0.121060E+002 -0.121301E+002  0.358598E+000  0.193643E+000  0.641402E+000  0.346357E+000  0.000000E+000
  0.000000E+000  0.000000E+000  0.260521E-001 -0.116319E+002 -0.116580E+002  0.363190E+000  0.196122E+000  0.636810E+000  0.343878E+000  0.000000E+000
  0.000000E+000  0.000000E+000  0.280561E-001 -0.112124E+002 -0.112405E+002  0.367492E+000  0.198445E+000  0.632508E+000  0.341555E+000  0.000000E+000
  0.000000E+000  0.000000E+000  0.300601E-001 -0.108378E+002 -0.108678E+002  0.371540E+000  0.200632E+000  0.628460E+000  0.339368E+000  0.000000E+000
  0.000000E+000  0.000000E+000  0.320641E-001 -0.105005E+002 -0.105325E+002  0.375367E+000  0.202698E+000  0.624633E+000  0.337302E+000  0.000000E+000
  0.000000E+000  0.000000E+000  0.340681E-001 -0.101947E+002 -0.102287E+002  0.378996E+000  0.204658E+000  0.621004E+000  0.335342E+000  0.000000E+000
  0.000000E+000  0.000000E+000  0.360721E-001 -0.991572E+001 -0.995179E+001  0.382449E+000  0.206522E+000  0.617551E+000  0.333478E+000  0.000000E+000
  0.000000E+000  0.000000E+000  0.380762E-001 -0.965987E+001 -0.969795E+001  0.385742E+000  0.208301E+000  0.614258E+000  0.331699E+000  0.000000E+000
  0.000000E+000  0.000000E+000  0.400802E-001 -0.942408E+001 -0.946416E+001  0.388893E+000  0.210002E+000  0.611107E+000  0.329998E+000  0.000000E+000
  0.000000E+000  0.000000E+000  0.420842E-001 -0.920582E+001 -0.924791E+001  0.391912E+000  0.211633E+000  0.608088E+000  0.328367E+000  0.000000E+000
  0.000000E+000  0.000000E+000  0.440882E-001 -0.900300E+001 -0.904709E+001  0.394812E+000  0.213199E+000  0.605188E+000  0.326801E+000  0.000000E+000
  0.000000E+000  0.000000E+000  0.460922E-001 -0.881386E+001 -0.885995E+001  0.397603E+000  0.214706E+000  0.602397E+000  0.325294E+000  0.000000E+000
  0.000000E+000  0.000000E+000  0.480962E-001 -0.863690E+001 -0.868499E+001  0.400292E+000  0.216158E+000  0.599708E+000  0.323842E+000  0.000000E+000
  0.000000E+000  0.000000E+000  0.501002E-001 -0.847085E+001 -0.852095E+001  0.402889E+000  0.217560E+000  0.597111E+000  0.322440E+000  0.000000E+000
  0.000000E+000  0.000000E+000  0.521042E-001 -0.831461E+001 -0.836671E+001  0.405398E+000  0.218915E+000  0.594602E+000  0.321085E+000  0.000000E+000
  0.000000E+000  0.000000E+000  0.541082E-001 -0.816724E+001 -0.822135E+001  0.407827E+000  0.220227E+000  0.592173E+000  0.319773E+000  0.000000E+000
  0.000000E+000  0.000000E+000  0.561122E-001 -0.802792E+001 -0.808403E+001  0.410181E+000  0.221498E+000  0.589819E+000  0.318502E+000  0.000000E+000
  0.000000E+000  0.000000E+000  0.581162E-001 -0.789592E+001 -0.795404E+001  0.412465E+000  0.222731E+000  0.587535E+000  0.317269E+000  0.000000E+000
  0.000000E+000  0.000000E+000  0.601202E-001 -0.777062E+001 -0.783074E+001  0.414682E+000  0.223928E+000  0.585318E+000  0.316072E+000  0.000000E+000
  0.000000E+000  0.000000E+000  0.621242E-001 -0.765145E+001 -0.771357E+001  0.416838E+000  0.225092E+000  0.583162E+000  0.314908E+000  0.000000E+000
  0.000000E+000  0.000000E+000  0.641283E-001 -0.753791E+001 -0.760204E+001  0.418935E+000  0.226225E+000  0.581065E+000  0.313775E+000  0.000000E+000
  0.000000E+000  0.000000E+000  0.661323E-001 -0.742958E+001 -0.749571E+001  0.420977E+000  0.227328E+000  0.579023E+000  0.312672E+000  0.000000E+000
  0.000000E+000  0.000000E+000  0.681363E-001 -0.732604E+001 -0.739418E+001  0.422968E+000  0.228403E+000  0.577032E+000  0.311597E+000  0.000000E+000
  0.000000E+000  0.000000E+000  0.701403E-001 -0.722696E+001 -0.729710E+001  0.424908E+000  0.229451E+000  0.575092E+000  0.310549E+000  0.000000E+000
  0.000000E+000  0.000000E+000  0.721443E-001 -0.713201E+001 -0.720416E+001  0.426803E+000  0.230473E+000  0.573197E+000  0.309527E+000  0.000000E+000
  0.000000E+000  0.000000E+000  0.741483E-001 -0.704091E+001 -0.711506E+001  0.428652E+000  0.231472E+000  0.571348E+000  0.308528E+000  0.000000E+000
  0.000000E+000  0.000000E+000  0.761523E-001 -0.695340E+001 -0.702955E+001  0.430460E+000  0.232448E+000  0.569540E+000  0.307552E+000  0.000000E+000
  0.000000E+000  0.000000E+000  0.781563E-001 -0.686923E+001 -0.694739E+001  0.432227E+000  0.233403E+000  0.567773E+000  0.306597E+000  0.000000E+000
  0.000000E+000  0.000000E+000  0.801603E-001 -0.678820E+001 -0.686836E+001  0.433956E+000  0.234336E+000  0.566044E+000  0.305664E+000  0.000000E+000
  0.000000E+000  0.000000E+000  0.821643E-001 -0.671011E+001 -0.679228E+001  0.435648E+000  0.235250E+000  0.564352E+000  0.304750E+000  0.000000E+000
  0.000000E+000  0.000000E+000  0.841683E-001 -0.663479E+001 -0.671895E+001  0.437305E+000  0.236145E+000  0.562695E+000  0.303855E+000  0.000000E+000
  0.000000E+000  0.000000E+000  0.861723E-001 -0.656206E+001 -0.664823E+001  0.438928E+000  0.237021E+000  0.561072E+000  0.302979E+000  0.000000E+000
  0.000000E+000  0.000000E+000  0.881764E-001 -0.649178E+001 -0.657995E+001  0.440520E+000  0.237881E+000  0.559480E+000  0.302119E+000  0.000000E+000
  0.000000E+000  0.000000E+000  0.901804E-001 -0.642380E+001 -0.651398E+001  0.442080E+000  0.238723E+000  0.557920E+000  0.301277E+000  0.000000E+000
  0.000000E+000  0.000000E+000  0.921844E-001 -0.635801E+001 -0.645020E+001  0.443611E+000  0.239550E+000  0.556389E+000  0.300450E+000  0.000000E+000
  0.000000E+000  0.000000E+000  0.941884E-001 -0.629429E+001 -0.638847E+001  0.445114E+000  0.240361E+000  0.554886E+000  0.299639E+000  0.000000E+000
  0.000000E+000  0.000000E+000  0.961924E-001 -0.623251E+001 -0.632870E+001  0.446589E+000  0.241158E+000  0.553411E+000  0.298842E+000  0.000000E+000
  0.000000E+000  0.000000E+000  0.981964E-001 -0.617259E+001 -0.627079E+001  0.448037E+000  0.241940E+000  0.551963E+000  0.298060E+000  0.000000E+000
  0.000000E+000  0.000000E+000  0.100200E+000 -0.611443E+001 -0.621463E+001  0.449460E+000  0.242709E+000  0.550540E+000  0.297291E+000  0.000000E+000
  0.000000E+000  0.000000E+000  0.102204E+000 -0.605793E+001 -0.616014E+001  0.450859E+000  0.243464E+000  0.549141E+000  0.296536E+000  0.000000E+000
  0.000000E+000  0.000000E+000  0.104208E+000 -0.600303E+001 -0.610724E+001  0.452234E+000  0.244207E+000  0.547766E+000  0.295793E+000  0.000000E+000
  0.000000E+000  0.000000E+000  0.106212E+000 -0.594964E+001 -0.605586E+001  0.453587E+000  0.244937E+000  0.546413E+000  0.295063E+000  0.000000E+000
  0.000000E+000  0.000000E+000  0.108216E+000 -0.589770E+001 -0.600592E+001  0.454917E+000  0.245655E+000  0.545083E+000  0.294345E+000  0.000000E+000
  0.000000E+000  0.000000E+000  0.110220E+000 -0.584713E+001 -0.595735E+001  0.456226E+000  0.246362E+000  0.543774E+000  0.293638E+000  0.000000E+000
  0.000000E+000  0.000000E+000  0.112224E+000 -0.579788E+001 -0.591010E+001  0.457514E+000  0.247058E+000  0.542486E+000  0.292942E+000  0.000000E+000
  0.000000E+000  0.000000E+000  0.114228E+000 -0.574988E+001 -0.586410E+001  0.458783E+000  0.247743E+000  0.541217E+000  0.292257E+000  0.000000E+000
  0.000000E+000  0.000000E+000  0.116232E+000 -0.570308E+001 -0.581931E+001  0.460032E+000  0.248417E+000  0.539968E+000  0.291583E+000  0.000000E+000
  0.000000E+000  0.000000E+000  0.118236E+000 -0.565743E+001 -0.577567E+001  0.461262E+000  0.249081E+000  0.538738E+000  0.290919E+000  0.000000E+000
  0.000000E+000  0.000000E+000  0.120240E+000 -0.561289E+001 -0.573313E+001  0.462474E+000  0.249736E+000  0.537526E+000  0.290264E+000  0.000000E+000
  0.000000E+000  0.000000E+000  0.122244E+000 -0.556940E+001 -0.569164E+001  0.463668E+000  0.250381E+000  0.536332E+000  0.289619E+000  0.000000E+000
  0.000000E+000  0.000000E+000  0.124248E+000 -0.552692E+001 -0.565117E+001  0.464846E+000  0.251017E+000  0.535154E+000  0.288983E+000  0.000000E+000
  0.000000E+000  0.000000E+000  0.126253E+000 -0.548542E+001 -0.561167E+001  0.466006E+000  0.251643E+000  0.533994E+000  0.288357E+000  0.000000E+000
  0.000000E+000  0.000000E+000  0.128257E+000 -0.544485E+001 -0.557311E+001  0.467151E+000  0.252261E+000  0.532849E+000  0.287739E+000  0.000000E+000
  0.000000E+000  0.000000E+000  0.130261E+000 -0.540518E+001 -0.553544E+001  0.468280E+000  0.252871E+000  0.531720E+000  0.287129E+000  0.000000E+000
  0.000000E+000  0.000000E+000  0.132265E+000 -0.536637E+001 -0.549864E+001  0.469393E+000  0.253472E+000  0.530607E+000  0.286528E+000  0.000000E+000
  0.000000E+000  0.000000E+000  0.134269E+000 -0.532840E+001 -0.546267E+001  0.470492E+000  0.254066E+000  0.529508E+000  0.285934E+000  0.000000E+000
  0.000000E+000  0.000000E+000  0.136273E+000 -0.529123E+001 -0.542750E+001  0.471576E+000  0.254651E+000  0.528424E+000  0.285349E+000  0.000000E+000
  0.000000E+000  0.000000E+000  0.138277E+000 -0.525482E+001 -0.539310E+001  0.472646E+000  0.255229E+000  0.527354E+000  0.284771E+000  0.000000E+000
  0.000000E+000  0.000000E+000  0.140281E+000 -0.521917E+001 -0.535945E+001  0.473702E+000  0.255799E+000  0.526298E+000  0.284201E+000  0.000000E+000
  0.000000E+000  0.000000E+000  0.142285E+000 -0.518423E+001 -0.532651E+001  0.474745E+000  0.256362E+000  0.525255E+000  0.283638E+000  0.000000E+000
  0.000000E+000  0.000000E+000  0.144289E+000 -0.514998E+001 -0.529427E+001  0.475775E+000  0.256918E+000  0.524225E+000  0.283082E+000  0.000000E+000
  0.000000E+000  0.000000E+000  0.146293E+000 -0.511640E+001 -0.526270E+001  0.476792E+000  0.257468E+000  0.523208E+000  0.282532E+000  0.000000E+000
  0.000000E+000  0.000000E+000  0.148297E+000 -0.508347E+001 -0.523177E+001  0.477796E+000  0.258010E+000  0.522204E+000  0.281990E+000  0.000000E+000
  0.000000E+000  0.000000E+000  0.150301E+000 -0.505117E+001 -0.520147E+001  0.478789E+000  0.258546E+000  0.521211E+000  0.281454E+000  0.000000E+000
  0.000000E+000  0.000000E+000  0.152305E+000 -0.501947E+001 -0.517177E+001  0.479769E+000  0.259075E+000  0.520231E+000  0.280925E+000  0.000000E+000
  0.000000E+000  0.000000E+000  0.154309E+000 -0.498835E+001 -0.514266E+001  0.480738E+000  0.259599E+000  0.519262E+000  0.280401E+000  0.000000E+000
  0.000000E+000  0.000000E+000  0.156313E+000 -0.495780E+001 -0.511411E+001  0.481696E+000  0.260116E+000  0.518304E+000  0.279884E+000  0.000000E+000
  0.000000E+000  0.000000E+000  0.158317E+000 -0.492780E+001 -0.508611E+001  0.482643E+000  0.260627E+000  0.517357E+000  0.279373E+000  0.000000E+000
  0.000000E+000  0.000000E+000  0.160321E+000 -0.489832E+001 -0.505864E+001  0.483579E+000  0.261132E+000  0.516421E+000  0.278868E+000  0.000000E+000
  0.000000E+000  0.000000E+000  0.162325E+000 -0.486937E+001 -0.503169E+001  0.484504E+000  0.261632E+000  0.515496E+000  0.278368E+000  0.000000E+000
  0.000000E+000  0.000000E+000  0.164329E+000 -0.484091E+001 -0.500524E+001  0.485419E+000  0.262126E+000  0.514581E+000  0.277874E+000  0.000000E+000
  0.000000E+000  0.000000E+000  0.166333E+000 -0.481293E+001 -0.497927E+001  0.486324E+000  0.262615E+000  0.513676E+000  0.277385E+000  0.000000E+000
  0.000000E+000  0.000000E+000  0.168337E+000 -0.478543E+001 -0.495377E+001  0.487219E+000  0.263098E+000  0.512781E+000  0.276902E+000  0.000000E+000
  0.000000E+000  0.000000E+000  0.170341E+000 -0.475838E+001 -0.492872E+001  0.488104E+000  0.263576E+000  0.511896E+000  0.276424E+000  0.000000E+000
  0.000000E+000  0.000000E+000  0.172345E+000 -0.473177E+001 -0.490412E+001  0.488979E+000  0.264049E+000  0.511021E+000  0.275951E+000  0.000000E+000
  0.000000E+000  0.000000E+000  0.174349E+000 -0.470560E+001 -0.487995E+001  0.489846E+000  0.264517E+000  0.510154E+000  0.275483E+000  0.000000E+000
  0.000000E+000  0.000000E+000  0.176353E+000 -0.467984E+001 -0.485619E+001  0.490703E+000  0.264980E+000  0.509297E+000  0.275020E+000  0.000000E+000
  0.000000E+000  0.000000E+000  0.178357E+000 -0.465448E+001 -0.483284E+001  0.491551E+000  0.265438E+000  0.508449E+000  0.274562E+000  0.000000E+000
  0.000000E+000  0.000000E+000  0.180361E+000 -0.462953E+001 -0.480989E+001  0.492391E+000  0.265891E+000  0.507609E+000  0.274109E+000  0.000000E+000
  0.000000E+000  0.000000E+000  0.182365E+000 -0.460495E+001 -0.478732E+001  0.493222E+000  0.266340E+000  0.506778E+000  0.273660E+000  0.000000E+000
  0.000000E+000  0.000000E+000  0.184369E+000 -0.458075E+001 -0.476512E+001  0.494045E+000  0.266784E+000  0.505955E+000  0.273216E+000  0.000000E+000
  0.000000E+000  0.000000E+000  0.186373E+000 -0.455691E+001 -0.474329E+001  0.494859E+000  0.267224E+000  0.505141E+000  0.272776E+000  0.000000E+000
  0.000000E+000  0.000000E+000  0.188377E+000 -0.453343E+001 -0.472181E+001  0.495665E+000  0.267659E+000  0.504335E+000  0.272341E+000  0.000000E+000
  0.000000E+000  0.000000E+000  0.190381E+000 -0.451029E+001 -0.470067E+001  0.496463E+000  0.268090E+000  0.503537E+000  0.271910E+000  0.000000E+000
  0.000000E+000  0.000000E+000  0.192385E+000 -0.448749E+001 -0.467988E+001  0.497254E+000  0.268517E+000  0.502746E+000  0.271483E+000  0.000000E+000
  0.000000E+000  0.000000E+000  0.194389E+000 -0.446502E+001 -0.465940E+001  0.498036E+000  0.268940E+000  0.501964E+000  0.271060E+000  0.000000E+000
  0.000000E+000  0.000000E+000  0.196393E+000 -0.444286E+001 -0.463925E+001  0.498812E+000  0.269358E+000  0.501188E+000  0.270642E+000  0.000000E+000
  0.000000E+000  0.000000E+000  0.198397E+000 -0.442101E+001 -0.461941E+001  0.499579E+000  0.269773E+000  0.500421E+000  0.270227E+000  0.000000E+000
  0.000000E+000  0.000000E+000  0.200401E+000 -0.439947E+001 -0.459987E+001  0.500340E+000  0.270184E+000  0.499660E+000  0.269816E+000  0.000000E+000
  0.000000E+000  0.000000E+000  0.202405E+000 -0.437822E+001 -0.458063E+001  0.501093E+000  0.270590E+000  0.498907E+000  0.269410E+000  0.000000E+000
  0.000000E+000  0.000000E+000  0.204409E+000 -0.435727E+001 -0.456168E+001  0.501840E+000  0.270993E+000  0.498160E+000  0.269007E+000  0.000000E+000
  0.000000E+000  0.000000E+000  0.206413E+000 -0.433659E+001 -0.454300E+001  0.502579E+000  0.271393E+000  0.497421E+000  0.268607E+000  0.000000E+000
  0.000000E+000  0.000000E+000  0.208417E+000 -0.431619E+001 -0.452461E+001  0.503312E+000  0.271788E+000  0.496688E+000  0.268212E+000  0.000000E+000
  0.000000E+000  0.000000E+000  0.210421E+000 -0.429606E+001 -0.450648E+001  0.504038E+000  0.272181E+000  0.495962E+000  0.267819E+000  0.000000E+000
  0.000000E+000  0.000000E+000  0.212425E+000 -0.427619E+001 -0.448861E+001  0.504757E+000  0.272569E+000  0.495243E+000  0.267431E+000  0.000000E+000
  0.000000E+000  0.000000E+000  0.214429E+000 -0.425657E+001 -0.447100E+001  0.505471E+000  0.272954E+000  0.494529E+000  0.267046E+000  0.000000E+000
  0.000000E+000  0.000000E+000  0.216433E+000 -0.423721E+001 -0.445364E+001  0.506177E+000  0.273336E+000  0.493823E+000  0.266664E+000  0.000000E+000
  0.000000E+000  0.000000E+000  0.218437E+000 -0.421809E+001 -0.443653E+001  0.506878E+000  0.273714E+000  0.493122E+000  0.266286E+000  0.000000E+000
  0.000000E+000  0.000000E+000  0.220441E+000 -0.419921E+001 -0.441965E+001  0.507572E+000  0.274089E+000  0.492428E+000  0.265911E+000  0.000000E+000
  0.000000E+000  0.000000E+000  0.222445E+000 -0.418056E+001 -0.440301E+001  0.508260E+000  0.274460E+000  0.491740E+000  0.265540E+000  0.000000E+000
  0.000000E+000  0.000000E+000  0.224449E+000 -0.416214E+001 -0.438659E+001  0.508942E+000  0.274829E+000  0.491058E+000  0.265171E+000  0.000000E+000
  0.000000E+000  0.000000E+000  0.226453E+000 -0.414395E+001 -0.437040E+001  0.509619E+000  0.275194E+000  0.490381E+000  0.264806E+000  0.000000E+000
  0.000000E+000  0.000000E+000  0.228457E+000 -0.412597E+001 -0.435443E+001  0.510289E+000  0.275556E+000  0.489711E+000  0.264444E+000  0.000000E+000
  0.000000E+000  0.000000E+000  0.230461E+000 -0.410821E+001 -0.433867E+001  0.510954E+000  0.275915E+000  0.489046E+000  0.264085E+000  0.000000E+000
  0.000000E+000  0.000000E+000  0.232465E+000 -0.409066E+001 -0.432313E+001  0.511614E+000  0.276271E+000  0.488386E+000  0.263729E+000  0.000000E+000
  0.000000E+000  0.000000E+000  0.234469E+000 -0.407331E+001 -0.430778E+001  0.512267E+000  0.276624E+000  0.487733E+000  0.263376E+000  0.000000E+000
  0.000000E+000  0.000000E+000  0.236473E+000 -0.405617E+001 -0.429264E+001  0.512916E+000  0.276975E+000  0.487084E+000  0.263025E+000  0.000000E+000
  0.000000E+000  0.000000E+000  0.238477E+000 -0.403922E+001 -0.427770E+001  0.513559E+000  0.277322E+000  0.486441E+000  0.262678E+000  0.000000E+000
  0.000000E+000  0.000000E+000  0.240481E+000 -0.402246E+001 -0.426294E+001  0.514197E+000  0.277666E+000  0.485803E+000  0.262334E+000  0.000000E+000
  0.000000E+000  0.000000E+000  0.242485E+000 -0.400590E+001 -0.424838E+001  0.514829E+000  0.278008E+000  0.485171E+000  0.261992E+000  0.000000E+000
  0.000000E+000  0.000000E+000  0.244489E+000 -0.398951E+001 -0.423400E+001  0.515456E+000  0.278346E+000  0.484544E+000  0.261654E+000  0.000000E+000
  0.000000E+000  0.000000E+000  0.246493E+000 -0.397331E+001 -0.421980E+001  0.516079E+000  0.278682E+000  0.483921E+000  0.261318E+000  0.000000E+000
  0.000000E+000  0.000000E+000  0.248497E+000 -0.395729E+001 -0.420578E+001  0.516696E+000  0.279016E+000  0.483304E+000  0.260984E+000  0.000000E+000
  0.000000E+000  0.000000E+000  0.250501E+000 -0.394144E+001 -0.419194E+001  0.517308E+000  0.279347E+000  0.482692E+000  0.260653E+000  0.000000E+000
  0.000000E+000  0.000000E+000  0.252505E+000 -0.392576E+001 -0.417826E+001  0.517916E+000  0.279675E+000  0.482084E+000  0.260325E+000  0.000000E+000
  0.000000E+000  0.000000E+000  0.254509E+000 -0.391025E+001 -0.416476E+001  0.518519E+000  0.280000E+000  0.481481E+000  0.260000E+000  0.000000E+000
  0.000000E+000  0.000000E+000  0.256513E+000 -0.389490E+001 -0.415141E+001  0.519117E+000  0.280323E+000  0.480883E+000  0.259677E+000  0.000000E+000
  0.000000E+000  0.000000E+000  0.258517E+000 -0.387972E+001 -0.413823E+001  0.519710E+000  0.280643E+000  0.480290E+000  0.259357E+000  0.000000E+000
  0.000000E+000  0.000000E+000  0.260521E+000 -0.386469E+001 -0.412521E+001  0.520299E+000  0.280961E+000  0.479701E+000  0.259039E+000  0.000000E+000
  0.000000E+000  0.000000E+000  0.262525E+000 -0.384982E+001 -0.411234E+001  0.520883E+000  0.281277E+000  0.479117E+000  0.258723E+000  0.000000E+000
  0.000000E+000  0.000000E+000  0.264529E+000 -0.383510E+001 -0.409962E+001  0.521463E+000  0.281590E+000  0.478537E+000  0.258410E+000  0.000000E+000
  0.000000E+000  0.000000E+000  0.266533E+000 -0.382052E+001 -0.408706E+001  0.522038E+000  0.281900E+000  0.477962E+000  0.258100E+000  0.000000E+000
  0.000000E+000  0.000000E+000  0.268537E+000 -0.380610E+001 -0.407464E+001  0.522609E+000  0.282209E+000  0.477391E+000  0.257791E+000  0.000000E+000
  0.000000E+000  0.000000E+000  0.270541E+000 -0.379182E+001 -0.406236E+001  0.523175E+000  0.282515E+000  0.476825E+000  0.257485E+000  0.000000E+000
  0.000000E+000  0.000000E+000  0.272545E+000 -0.377768E+001 -0.405023E+001  0.523738E+000  0.282818E+000  0.476262E+000  0.257182E+000  0.000000E+000
  0.000000E+000  0.000000E+000  0.274549E+000 -0.376368E+001 -0.403823E+001  0.524296E+000  0.283120E+000  0.475704E+000  0.256880E+000  0.000000E+000
  0.000000E+000  0.000000E+000  0.276553E+000 -0.374982E+001 -0.402637E+001  0.524850E+000  0.283419E+000  0.475150E+000  0.256581E+000  0.000000E+000
  0.000000E+000  0.000000E+000  0.278557E+000 -0.373609E+001 -0.401465E+001  0.525400E+000  0.283716E+000  0.474600E+000  0.256284E+000  0.000000E+000
  0.000000E+000  0.000000E+000  0.280561E+000 -0.372250E+001 -0.400306E+001  0.525946E+000  0.284011E+000  0.474054E+000  0.255989E+000  0.000000E+000
  0.000000E+000  0.000000E+000  0.282565E+000 -0.370903E+001 -0.399160E+001  0.526487E+000  0.284303E+000  0.473513E+000  0.255697E+000  0.000000E+000
  0.000000E+000  0.000000E+000  0.284569E+000 -0.369569E+001 -0.398026E+001  0.527025E+000  0.284594E+000  0.472975E+000  0.255406E+000  0.000000E+000
  0.000000E+000  0.000000E+000  0.286573E+000 -0.368248E+001 -0.396905E+001  0.527559E+000  0.284882E+000  0.472441E+000  0.255118E+000  0.000000E+000
  0.000000E+000  0.000000E+000  0.288577E+000 -0.366938E+001 -0.395796E+001  0.528089E+000  0.285168E+000  0.471911E+000  0.254832E+000  0.000000E+000
  0.000000E+000  0.000000E+000  0.290581E+000 -0.365641E+001 -0.394700E+001  0.528615E+000  0.285452E+000  0.471385E+000  0.254548E+000  0.000000E+000
  0.000000E+000  0.000000E+000  0.292585E+000 -0.364356E+001 -0.393615E+001  0.529138E+000  0.285734E+000  0.470862E+000  0.254266E+000  0.000000E+000
  0.000000E+000  0.000000E+000  0.294589E+000 -0.363083E+001 -0.392542E+001  0.529656E+000  0.286014E+000  0.470344E+000  0.253986E+000  0.000000E+000
  0.000000E+000  0.000000E+000  0.296593E+000 -0.361821E+001 -0.391480E+001  0.530171E+000  0.286292E+000  0.469829E+000  0.253708E+000  0.000000E+000
  0.000000E+000  0.000000E+000  0.298597E+000 -0.360570E+001 -0.390430E+001  0.530683E+000  0.286569E+000  0.469317E+000  0.253431E+000  0.000000E+000
  0.000000E+000  0.000000E+000  0.300601E+000 -0.359331E+001 -0.389391E+001  0.531190E+000  0.286843E+000  0.468810E+000  0.253157E+000  0.000000E+000
  0.000000E+000  0.000000E+000  0.302605E+000 -0.358102E+001 -0.388363E+001  0.531694E+000  0.287115E+000  0.468306E+000  0.252885E+000  0.000000E+000
  0.000000E+000  0.000000E+000  0.304609E+000 -0.356885E+001 -0.387346E+001  0.532195E+000  0.287385E+000  0.467805E+000  0.252615E+000  0.000000E+000
  0.000000E+000  0.000000E+000  0.306613E+000 -0.355678E+001 -0.386339E+001  0.532692E+000  0.287654E+000  0.467308E+000  0.252346E+000  0.000000E+000
  0.000000E+000  0.000000E+000  0.308617E+000 -0.354481E+001 -0.385343E+001  0.533186E+000  0.287920E+000  0.466814E+000  0.252080E+000  0.000000E+000
  0.000000E+000  0.000000E+000  0.310621E+000 -0.353295E+001 -0.384357E+001  0.533676E+000  0.288185E+000  0.466324E+000  0.251815E+000  0.000000E+000
  0.000000E+000  0.000000E+000  0.312625E+000 -0.352119E+001 -0.383381E+001  0.534163E+000  0.288448E+000  0.465837E+000  0.251552E+000  0.000000E+000
  0.000000E+000  0.000000E+000  0.314629E+000 -0.350952E+001 -0.382415E+001  0.534646E+000  0.288709E+000  0.465354E+000  0.251291E+000  0.000000E+000
  0.000000E+000  0.000000E+000  0.316633E+000 -0.349796E+001 -0.381459E+001  0.535126E+000  0.288968E+000  0.464874E+000  0.251032E+000  0.000000E+000
  0.000000E+000  0.000000E+000  0.318637E+000 -0.348649E+001 -0.380513E+001  0.535603E+000  0.289226E+000  0.464397E+000  0.250774E+000  0.000000E+000
  0.000000E+000  0.000000E+000  0.320641E+000 -0.347512E+001 -0.379576E+001  0.536077E+000  0.289481E+000  0.463923E+000  0.250519E+000  0.000000E+000
  0.000000E+000  0.000000E+000  0.322645E+000 -0.346384E+001 -0.378649E+001  0.536547E+000  0.289735E+000  0.463453E+000  0.250265E+000  0.000000E+000
  0.000000E+000  0.000000E+000  0.324649E+000 -0.345266E+001 -0.377731E+001  0.537014E+000  0.289988E+000  0.462986E+000  0.250012E+000  0.000000E+000
  0.000000E+000  0.000000E+000  0.326653E+000 -0.344157E+001 -0.376822E+001  0.537478E+000  0.290238E+000  0.462522E+000  0.249762E+000  0.000000E+000
  0.000000E+000  0.000000E+000  0.328657E+000 -0.343056E+001 -0.375922E+001  0.537939E+000  0.290487E+000  0.462061E+000  0.249513E+000  0.000000E+000
  0.000000E+000  0.000000E+000  0.330661E+000 -0.341965E+001 -0.375031E+001  0.538397E+000  0.290734E+000  0.461603E+000  0.249266E+000  0.000000E+000
  0.000000E+000  0.000000E+000  0.332665E+000 -0.340882E+001 -0.374148E+001  0.538852E+000  0.290980E+000  0.461148E+000  0.249020E+000  0.000000E+000
  0.000000E+000  0.000000E+000  0.334669E+000 -0.339807E+001 -0.373274E+001  0.539303E+000  0.291224E+000  0.460697E+000  0.248776E+000  0.000000E+000
  0.000000E+000  0.000000E+000  0.336673E+000 -0.338742E+001 -0.372409E+001  0.539752E+000  0.291466E+000  0.460248E+000  0.248534E+000  0.000000E+000
  0.000000E+000  0.000000E+000  0.338677E+000 -0.337684E+001 -0.371552E+001  0.540198E+000  0.291707E+000  0.459802E+000  0.248293E+000  0.000000E+000
  0.000000E+000  0.000000E+000  0.340681E+000 -0.336635E+001 -0.370703E+001  0.540640E+000  0.291946E+000  0.459360E+000  0.248054E+000  0.000000E+000
  0.000000E+000  0.000000E+000  0.342685E+000 -0.335594E+001 -0.369863E+001  0.541080E+000  0.292183E+000  0.458920E+000  0.247817E+000  0.000000E+000
  0.000000E+000  0.000000E+000  0.344689E+000 -0.334561E+001 -0.369030E+001  0.541517E+000  0.292419E+000  0.458483E+000  0.247581E+000  0.000000E+000
  0.000000E+000  0.000000E+000  0.346693E+000 -0.333536E+001 -0.368206E+001  0.541951E+000  0.292654E+000  0.458049E+000  0.247346E+000  0.000000E+000
  0.000000E+000  0.000000E+000  0.348697E+000 -0.332519E+001 -0.367389E+001  0.542382E+000  0.292887E+000  0.457618E+000  0.247113E+000  0.000000E+000
  0.000000E+000  0.000000E+000  0.350701E+000 -0.331509E+001 -0.366580E+001  0.542811E+000  0.293118E+000  0.457189E+000  0.246882E+000  0.000000E+000
  0.000000E+000  0.000000E+000  0.352705E+000 -0.330507E+001 -0.365778E+001  0.543236E+000  0.293348E+000  0.456764E+000  0.246652E+000  0.000000E+000
  0.000000E+000  0.000000E+000  0.354709E+000 -0.329513E+001 -0.364984E+001  0.543659E+000  0.293576E+000  0.456341E+000  0.246424E+000  0.000000E+000
  0.000000E+000  0.000000E+000  0.356713E+000 -0.328526E+001 -0.364197E+001  0.544079E+000  0.293803E+000  0.455921E+000  0.246197E+000  0.000000E+000
  0.000000E+000  0.000000E+000  0.358717E+000 -0.327546E+001 -0.363418E+001  0.544497E+000  0.294028E+000  0.455503E+000  0.245972E+000  0.000000E+000
  0.000000E+000  0.000000E+000  0.360721E+000 -0.326574E+001 -0.362646E+001  0.544911E+000  0.294252E+000  0.455089E+000  0.245748E+000  0.000000E+000
  0.000000E+000  0.000000E+000  0.362725E+000 -0.325608E+001 -0.361881E+001  0.545323E+000  0.294475E+000  0.454677E+000  0.245525E+000  0.000000E+000
  0.000000E+000  0.000000E+000  0.364729E+000 -0.324650E+001 -0.361123E+001  0.545733E+000  0.294696E+000  0.454267E+000  0.245304E+000  0.000000E+000
  0.000000E+000  0.000000E+000  0.366733E+000 -0.323698E+001 -0.360372E+001  0.546139E+000  0.294915E+000  0.453861E+000  0.245085E+000  0.000000E+000
  0.000000E+000  0.000000E+000  0.368737E+000 -0.322754E+001 -0.359627E+001  0.546543E+000  0.295133E+000  0.453457E+000  0.244867E+000  0.000000E+000
  0.000000E+000  0.000000E+000  0.370741E+000 -0.321816E+001 -0.358890E+001  0.546945E+000  0.295350E+000  0.453055E+000  0.244650E+000  0.000000E+000
  0.000000E+000  0.000000E+000  0.372745E+000 -0.320884E+001 -0.358159E+001  0.547344E+000  0.295566E+000  0.452656E+000  0.244434E+000  0.000000E+000
  0.000000E+000  0.000000E+000  0.374749E+000 -0.319960E+001 -0.357435E+001  0.547740E+000  0.295780E+000  0.452260E+000  0.244220E+000  0.000000E+000
  0.000000E+000  0.000000E+000  0.376754E+000 -0.319042E+001 -0.356717E+001  0.548134E+000  0.295992E+000  0.451866E+000  0.244008E+000  0.000000E+000
  0.000000E+000  0.000000E+000  0.378758E+000 -0.318130E+001 -0.356006E+001  0.548525E+000  0.296204E+000  0.451475E+000  0.243796E+000  0.000000E+000
  0.000000E+000  0.000000E+000  0.380762E+000 -0.317225E+001 -0.355301E+001  0.548914E+000  0.296414E+000  0.451086E+000  0.243586E+000  0.000000E+000
  0.000000E+000  0.000000E+000  0.382766E+000 -0.316326E+001 -0.354602E+001  0.549301E+000  0.296622E+000  0.450699E+000  0.243378E+000  0.000000E+000
  0.000000E+000  0.000000E+000  0.384770E+000 -0.315433E+001 -0.353910E+001  0.549685E+000  0.296830E+000  0.450315E+000  0.243170E+000  0.000000E+000
  0.000000E+000  0.000000E+000  0.386774E+000 -0.314546E+001 -0.353223E+001  0.550066E+000  0.297036E+000  0.449934E+000  0.242964E+000  0.000000E+000
  0.000000E+000  0.000000E+000  0.388778E+000 -0.313665E+001 -0.352543E+001  0.550445E+000  0.297240E+000  0.449555E+000  0.242760E+000  0.000000E+000
  0.000000E+000  0.000000E+000  0.390782E+000 -0.312791E+001 -0.351869E+001  0.550822E+000  0.297444E+000  0.449178E+000  0.242556E+000  0.000000E+000
  0.000000E+000  0.000000E+000  0.392786E+000 -0.311922E+001 -0.351200E+001  0.551196E+000  0.297646E+000  0.448804E+000  0.242354E+000  0.000000E+000