title = "dataset transp-updrld"
variables = "time", "inflow", "outflow", "change in storage", "root water uptake" 
zone t = "mass balance -  variably saturated flow", f=point
  1.0000E-10  7.1508E-01  0.0000E+00  7.1500E-01  0.0000E+00
  6.0000E-10  7.1508E-01  0.0000E+00  7.1508E-01  0.0000E+00
  3.1000E-09  7.1505E-01  0.0000E+00  7.1505E-01  0.0000E+00
  1.5600E-08  7.1489E-01  0.0000E+00  7.1489E-01  0.0000E+00
  7.8100E-08  7.1410E-01  0.0000E+00  7.1410E-01  0.0000E+00
  3.9060E-07  7.1019E-01  0.0000E+00  7.1019E-01  0.0000E+00
  1.9531E-06  6.9152E-01  0.0000E+00  6.9152E-01  0.0000E+00
  9.7656E-06  6.1547E-01  0.0000E+00  6.1547E-01  0.0000E+00
  4.8828E-05  4.2119E-01  0.0000E+00  4.2119E-01  0.0000E+00
  2.4414E-04  1.9543E-01  0.0000E+00  1.9543E-01  0.0000E+00
  7.8469E-04  9.5858E-02  0.0000E+00  9.5858E-02  0.0000E+00
  2.7036E-03  4.6995E-02  0.0000E+00  4.6995E-02  0.0000E+00
  8.4208E-03  2.4389E-02  0.0000E+00  2.4389E-02  0.0000E+00
  2.8438E-02  1.2247E-02  0.0000E+00  1.2247E-02  0.0000E+00
  1.0914E-01  8.6400E-03  2.9791E-03  5.6609E-03  0.0000E+00
  5.1267E-01  8.6400E-03  5.7456E-03  2.8944E-03  0.0000E+00
  1.0000E+00  8.6400E-03  6.0697E-03  2.5703E-03  0.0000E+00
  2.0000E+00  4.1835E-04  7.9172E-03 -7.5743E-03  0.0000E+00
  2.5975E+00  1.2131E-02  6.5538E-03  5.5767E-03  0.0000E+00
  3.0000E+00  1.2131E-02  6.3044E-03  5.8262E-03  0.0000E+00
  4.0000E+00  2.3622E-05  6.0384E-03 -6.0148E-03  0.0000E+00
  5.0000E+00  0.0000E+00  5.6208E-03 -5.6208E-03  0.0000E+00
  6.0000E+00  0.0000E+00  5.0939E-03 -5.0939E-03  0.0000E+00
  7.0000E+00  0.0000E+00  4.5634E-03 -4.5634E-03  0.0000E+00
  8.0000E+00  0.0000E+00  4.0621E-03 -5.6380E-03  0.0000E+00
  9.0000E+00  0.0000E+00  3.6024E-03 -5.2916E-03  0.0000E+00
  1.0000E+01  0.0000E+00  3.1937E-03 -4.5940E-03  0.0000E+00
  1.1000E+01  0.0000E+00  2.8404E-03 -3.8113E-03  0.0000E+00
  1.2000E+01  0.0000E+00  2.5412E-03 -3.1485E-03  0.0000E+00
  1.3000E+01  0.0000E+00  2.2878E-03 -3.5210E-03  0.0000E+00
  1.4000E+01  0.0000E+00  2.0717E-03 -3.0901E-03  0.0000E+00
  1.5000E+01  0.0000E+00  1.8852E-03 -3.0258E-03  0.0000E+00
  1.6000E+01  0.0000E+00  1.7227E-03 -2.7924E-03  0.0000E+00
  1.7000E+01  0.0000E+00  1.5799E-03 -2.8958E-03  0.0000E+00
  1.8000E+01  0.0000E+00  1.4535E-03 -2.5203E-03  0.0000E+00
  1.9000E+01  0.0000E+00  1.3410E-03 -2.4260E-03  0.0000E+00
  2.0000E+01  0.0000E+00  1.2405E-03 -2.2199E-03  0.0000E+00
  2.1000E+01  1.5250E-03  1.1511E-03 -1.3537E-04  0.0000E+00
  2.2000E+01  0.0000E+00  1.0721E-03 -1.6776E-03  0.0000E+00
  2.3000E+01  0.0000E+00  1.0023E-03 -2.2972E-03  0.0000E+00
  2.4000E+01  4.5144E-03  9.4095E-04  2.7637E-03  0.0000E+00
  2.5000E+01  0.0000E+00  8.8763E-04 -1.7309E-03  0.0000E+00
  2.6000E+01  8.3920E-03  8.4339E-04  7.0235E-03  0.0000E+00
  2.7000E+01  1.8913E-02  8.2155E-04  1.7325E-02  0.0000E+00
  2.8000E+01  1.8913E-02  8.9193E-04  1.7639E-02  0.0000E+00
  2.9000E+01  8.0361E-03  1.2206E-03  6.4930E-03  0.0000E+00
  3.0000E+01  1.8913E-02  2.2299E-03  1.6476E-02  0.0000E+00
  3.1000E+01  3.4975E-03  3.7339E-03 -5.1084E-04  0.0000E+00
  3.2000E+01  3.3782E-03  4.7766E-03 -2.0891E-03  0.0000E+00
  3.3000E+01  0.0000E+00  5.0084E-03 -6.0528E-03  0.0000E+00
  3.4000E+01  4.3891E-03  4.8272E-03 -1.8656E-03  0.0000E+00
  3.5000E+01  1.0014E-03  4.5040E-03 -4.1599E-03  0.0000E+00
  3.6000E+01  0.0000E+00  4.1203E-03 -5.1270E-03  0.0000E+00
  3.7000E+01  0.0000E+00  3.7102E-03 -5.4079E-03  0.0000E+00
  3.8000E+01  0.0000E+00  3.2993E-03 -5.7462E-03  0.0000E+00
  3.9000E+01  0.0000E+00  2.9137E-03 -5.2944E-03  0.0000E+00
  4.0000E+01  0.0000E+00  2.5683E-03 -4.8839E-03  0.0000E+00
  4.1000E+01  0.0000E+00  2.2653E-03 -4.7559E-03  0.0000E+00
  4.2000E+01  0.0000E+00  2.0037E-03 -4.1862E-03  0.0000E+00
  4.3000E+01  0.0000E+00  1.7798E-03 -3.7672E-03  0.0000E+00
  4.4000E+01  0.0000E+00  1.5900E-03 -3.0807E-03  0.0000E+00
  4.5000E+01  0.0000E+00  1.4286E-03 -2.9301E-03  0.0000E+00
  4.6000E+01  0.0000E+00  1.2915E-03 -2.4609E-03  0.0000E+00
  4.7000E+01  3.2158E-04  1.1755E-03 -1.6048E-03  0.0000E+00
  4.8000E+01  1.1085E-02  1.0822E-03  9.8958E-03  0.0000E+00
  4.8960E+01  7.7985E-03  1.0169E-03  5.8791E-03  0.0000E+00
  4.9000E+01  7.7985E-03  1.0143E-03  5.8801E-03  0.0000E+00
  4.9202E+01  1.7919E-03  1.0020E-03 -2.7052E-04  0.0000E+00
  5.0000E+01  1.7919E-03  9.7403E-04 -2.3413E-04  0.0000E+00
