title = "dataset transp-updrld"
variables = "time", "water mass", "water filled volume", "gas filled volume" 
zone t = "system mass -  variably saturated flow", f=point
  0.0000E+00  2.4235E+02  2.6555E-01  2.2945E-01
  1.0000E-10  2.4235E+02  2.6555E-01  2.2945E-01
  6.0000E-10  2.4235E+02  2.6555E-01  2.2945E-01
  3.1000E-09  2.4235E+02  2.6555E-01  2.2945E-01
  1.5600E-08  2.4235E+02  2.6555E-01  2.2945E-01
  7.8100E-08  2.4235E+02  2.6555E-01  2.2945E-01
  3.9060E-07  2.4235E+02  2.6555E-01  2.2945E-01
  1.9531E-06  2.4235E+02  2.6556E-01  2.2944E-01
  9.7656E-06  2.4235E+02  2.6556E-01  2.2944E-01
  4.8828E-05  2.4237E+02  2.6558E-01  2.2942E-01
  2.4414E-04  2.4241E+02  2.6563E-01  2.2937E-01
  7.8469E-04  2.4246E+02  2.6569E-01  2.2931E-01
  2.7036E-03  2.4255E+02  2.6580E-01  2.2920E-01
  8.4208E-03  2.4269E+02  2.6596E-01  2.2904E-01
  2.8438E-02  2.4293E+02  2.6624E-01  2.2876E-01
  1.0914E-01  2.4339E+02  2.6673E-01  2.2827E-01
  5.1267E-01  2.4456E+02  2.6783E-01  2.2717E-01
  1.0000E+00  2.4581E+02  2.6906E-01  2.2594E-01
  2.0000E+00  2.3824E+02  2.6080E-01  2.3420E-01
  2.5975E+00  2.4157E+02  2.6406E-01  2.3094E-01
  3.0000E+00  2.4391E+02  2.6646E-01  2.2854E-01
  4.0000E+00  2.3790E+02  2.6027E-01  2.3473E-01
  5.0000E+00  2.3228E+02  2.5429E-01  2.4071E-01
  6.0000E+00  2.2718E+02  2.4878E-01  2.4622E-01
  7.0000E+00  2.2262E+02  2.4382E-01  2.5118E-01
  8.0000E+00  2.1698E+02  2.3776E-01  2.5724E-01
  9.0000E+00  2.1169E+02  2.3205E-01  2.6295E-01
  1.0000E+01  2.0710E+02  2.2706E-01  2.6794E-01
  1.1000E+01  2.0329E+02  2.2288E-01  2.7212E-01
  1.2000E+01  2.0014E+02  2.1941E-01  2.7559E-01
  1.3000E+01  1.9662E+02  2.1559E-01  2.7941E-01
  1.4000E+01  1.9353E+02  2.1223E-01  2.8277E-01
  1.5000E+01  1.9050E+02  2.0894E-01  2.8606E-01
  1.6000E+01  1.8771E+02  2.0590E-01  2.8910E-01
  1.7000E+01  1.8481E+02  2.0277E-01  2.9223E-01
  1.8000E+01  1.8229E+02  2.0003E-01  2.9497E-01
  1.9000E+01  1.7987E+02  1.9739E-01  2.9761E-01
  2.0000E+01  1.7765E+02  1.9497E-01  3.0003E-01
  2.1000E+01  1.7751E+02  1.9466E-01  3.0034E-01
  2.2000E+01  1.7583E+02  1.9283E-01  3.0217E-01
  2.3000E+01  1.7354E+02  1.9038E-01  3.0462E-01
  2.4000E+01  1.7630E+02  1.9302E-01  3.0198E-01
  2.5000E+01  1.7457E+02  1.9120E-01  3.0380E-01
  2.6000E+01  1.8159E+02  1.9822E-01  2.9678E-01
  2.7000E+01  1.9892E+02  2.1602E-01  2.7898E-01
  2.8000E+01  2.1656E+02  2.3491E-01  2.6009E-01
  2.9000E+01  2.2305E+02  2.4260E-01  2.5240E-01
  3.0000E+01  2.3953E+02  2.6066E-01  2.3434E-01
  3.1000E+01  2.3901E+02  2.6090E-01  2.3410E-01
  3.2000E+01  2.3693E+02  2.5897E-01  2.3603E-01
  3.3000E+01  2.3087E+02  2.5268E-01  2.4232E-01
  3.4000E+01  2.2901E+02  2.5056E-01  2.4444E-01
  3.5000E+01  2.2485E+02  2.4611E-01  2.4889E-01
  3.6000E+01  2.1972E+02  2.4063E-01  2.5437E-01
  3.7000E+01  2.1431E+02  2.3481E-01  2.6019E-01
  3.8000E+01  2.0857E+02  2.2863E-01  2.6637E-01
  3.9000E+01  2.0327E+02  2.2290E-01  2.7210E-01
  4.0000E+01  1.9839E+02  2.1761E-01  2.7739E-01
  4.1000E+01  1.9363E+02  2.1246E-01  2.8254E-01
  4.2000E+01  1.8945E+02  2.0791E-01  2.8709E-01
  4.3000E+01  1.8568E+02  2.0380E-01  2.9120E-01
  4.4000E+01  1.8260E+02  2.0042E-01  2.9458E-01
  4.5000E+01  1.7967E+02  1.9722E-01  2.9778E-01
  4.6000E+01  1.7721E+02  1.9451E-01  3.0049E-01
  4.7000E+01  1.7560E+02  1.9269E-01  3.0231E-01
  4.8000E+01  1.8550E+02  2.0253E-01  2.9247E-01
  4.8960E+01  1.9114E+02  2.0829E-01  2.8671E-01
  4.9000E+01  1.9138E+02  2.0853E-01  2.8647E-01
  4.9202E+01  1.9132E+02  2.0851E-01  2.8649E-01
  5.0000E+01  1.9114E+02  2.0847E-01  2.8653E-01
