title = "dataset transp-updrld"
variables = "x", "y", "z", "vx", "vy", "vz"
zone t = "velocities, solution time =  5.000E+01 days        " i =  499, j =    1, k =    1,  f=point
  0.000000E+000  0.000000E+000  0.100200E-002  0.000000E+000  0.000000E+000 -0.974032E-003
  0.000000E+000  0.000000E+000  0.300601E-002  0.000000E+000  0.000000E+000 -0.973782E-003
  0.000000E+000  0.000000E+000  0.501002E-002  0.000000E+000  0.000000E+000 -0.973365E-003
  0.000000E+000  0.000000E+000  0.701403E-002  0.000000E+000  0.000000E+000 -0.972849E-003
  0.000000E+000  0.000000E+000  0.901804E-002  0.000000E+000  0.000000E+000 -0.972239E-003
  0.000000E+000  0.000000E+000  0.110220E-001  0.000000E+000  0.000000E+000 -0.971566E-003
  0.000000E+000  0.000000E+000  0.130261E-001  0.000000E+000  0.000000E+000 -0.970864E-003
  0.000000E+000  0.000000E+000  0.150301E-001  0.000000E+000  0.000000E+000 -0.970100E-003
  0.000000E+000  0.000000E+000  0.170341E-001  0.000000E+000  0.000000E+000 -0.969330E-003
  0.000000E+000  0.000000E+000  0.190381E-001  0.000000E+000  0.000000E+000 -0.968505E-003
  0.000000E+000  0.000000E+000  0.210421E-001  0.000000E+000  0.000000E+000 -0.967658E-003
  0.000000E+000  0.000000E+000  0.230461E-001  0.000000E+000  0.000000E+000 -0.966825E-003
  0.000000E+000  0.000000E+000  0.250501E-001  0.000000E+000  0.000000E+000 -0.965943E-003
  0.000000E+000  0.000000E+000  0.270541E-001  0.000000E+000  0.000000E+000 -0.965086E-003
  0.000000E+000  0.000000E+000  0.290581E-001  0.000000E+000  0.000000E+000 -0.964181E-003
  0.000000E+000  0.000000E+000  0.310621E-001  0.000000E+000  0.000000E+000 -0.963268E-003
  0.000000E+000  0.000000E+000  0.330661E-001  0.000000E+000  0.000000E+000 -0.962392E-003
  0.000000E+000  0.000000E+000  0.350701E-001  0.000000E+000  0.000000E+000 -0.961469E-003
  0.000000E+000  0.000000E+000  0.370741E-001  0.000000E+000  0.000000E+000 -0.960590E-003
  0.000000E+000  0.000000E+000  0.390782E-001  0.000000E+000  0.000000E+000 -0.959664E-003
  0.000000E+000  0.000000E+000  0.410822E-001  0.000000E+000  0.000000E+000 -0.958738E-003
  0.000000E+000  0.000000E+000  0.430862E-001  0.000000E+000  0.000000E+000 -0.957865E-003
  0.000000E+000  0.000000E+000  0.450902E-001  0.000000E+000  0.000000E+000 -0.956945E-003
  0.000000E+000  0.000000E+000  0.470942E-001  0.000000E+000  0.000000E+000 -0.956082E-003
  0.000000E+000  0.000000E+000  0.490982E-001  0.000000E+000  0.000000E+000 -0.955172E-003
  0.000000E+000  0.000000E+000  0.511022E-001  0.000000E+000  0.000000E+000 -0.954269E-003
  0.000000E+000  0.000000E+000  0.531062E-001  0.000000E+000  0.000000E+000 -0.953430E-003
  0.000000E+000  0.000000E+000  0.551102E-001  0.000000E+000  0.000000E+000 -0.952544E-003
  0.000000E+000  0.000000E+000  0.571142E-001  0.000000E+000  0.000000E+000 -0.951726E-003
  0.000000E+000  0.000000E+000  0.591182E-001  0.000000E+000  0.000000E+000 -0.950860E-003
  0.000000E+000  0.000000E+000  0.611222E-001  0.000000E+000  0.000000E+000 -0.950006E-003
  0.000000E+000  0.000000E+000  0.631263E-001  0.000000E+000  0.000000E+000 -0.949229E-003
  0.000000E+000  0.000000E+000  0.651303E-001  0.000000E+000  0.000000E+000 -0.948400E-003
  0.000000E+000  0.000000E+000  0.671343E-001  0.000000E+000  0.000000E+000 -0.947655E-003
  0.000000E+000  0.000000E+000  0.691383E-001  0.000000E+000  0.000000E+000 -0.946856E-003
  0.000000E+000  0.000000E+000  0.711423E-001  0.000000E+000  0.000000E+000 -0.946073E-003
  0.000000E+000  0.000000E+000  0.731463E-001  0.000000E+000  0.000000E+000 -0.945378E-003
  0.000000E+000  0.000000E+000  0.751503E-001  0.000000E+000  0.000000E+000 -0.944629E-003
  0.000000E+000  0.000000E+000  0.771543E-001  0.000000E+000  0.000000E+000 -0.943973E-003
  0.000000E+000  0.000000E+000  0.791583E-001  0.000000E+000  0.000000E+000 -0.943262E-003
  0.000000E+000  0.000000E+000  0.811623E-001  0.000000E+000  0.000000E+000 -0.942570E-003
  0.000000E+000  0.000000E+000  0.831663E-001  0.000000E+000  0.000000E+000 -0.941998E-003
  0.000000E+000  0.000000E+000  0.851703E-001  0.000000E+000  0.000000E+000 -0.941348E-003
  0.000000E+000  0.000000E+000  0.871743E-001  0.000000E+000  0.000000E+000 -0.940801E-003
  0.000000E+000  0.000000E+000  0.891784E-001  0.000000E+000  0.000000E+000 -0.940221E-003
  0.000000E+000  0.000000E+000  0.911824E-001  0.000000E+000  0.000000E+000 -0.939639E-003
  0.000000E+000  0.000000E+000  0.931864E-001  0.000000E+000  0.000000E+000 -0.939165E-003
  0.000000E+000  0.000000E+000  0.951904E-001  0.000000E+000  0.000000E+000 -0.938631E-003
  0.000000E+000  0.000000E+000  0.971944E-001  0.000000E+000  0.000000E+000 -0.938232E-003
  0.000000E+000  0.000000E+000  0.991984E-001  0.000000E+000  0.000000E+000 -0.937750E-003
  0.000000E+000  0.000000E+000  0.101202E+000  0.000000E+000  0.000000E+000 -0.937294E-003
  0.000000E+000  0.000000E+000  0.103206E+000  0.000000E+000  0.000000E+000 -0.936985E-003
  0.000000E+000  0.000000E+000  0.105210E+000  0.000000E+000  0.000000E+000 -0.936584E-003
  0.000000E+000  0.000000E+000  0.107214E+000  0.000000E+000  0.000000E+000 -0.936335E-003
  0.000000E+000  0.000000E+000  0.109218E+000  0.000000E+000  0.000000E+000 -0.936022E-003
  0.000000E+000  0.000000E+000  0.111222E+000  0.000000E+000  0.000000E+000 -0.935739E-003
  0.000000E+000  0.000000E+000  0.113226E+000  0.000000E+000  0.000000E+000 -0.935554E-003
  0.000000E+000  0.000000E+000  0.115230E+000  0.000000E+000  0.000000E+000 -0.935332E-003
  0.000000E+000  0.000000E+000  0.117234E+000  0.000000E+000  0.000000E+000 -0.935272E-003
  0.000000E+000  0.000000E+000  0.119238E+000  0.000000E+000  0.000000E+000 -0.935084E-003
  0.000000E+000  0.000000E+000  0.121242E+000  0.000000E+000  0.000000E+000 -0.934963E-003
  0.000000E+000  0.000000E+000  0.123246E+000  0.000000E+000  0.000000E+000 -0.935067E-003
  0.000000E+000  0.000000E+000  0.125251E+000  0.000000E+000  0.000000E+000 -0.935057E-003
  0.000000E+000  0.000000E+000  0.127255E+000  0.000000E+000  0.000000E+000 -0.935155E-003
  0.000000E+000  0.000000E+000  0.129259E+000  0.000000E+000  0.000000E+000 -0.935183E-003
  0.000000E+000  0.000000E+000  0.131263E+000  0.000000E+000  0.000000E+000 -0.935290E-003
  0.000000E+000  0.000000E+000  0.133267E+000  0.000000E+000  0.000000E+000 -0.935459E-003
  0.000000E+000  0.000000E+000  0.135271E+000  0.000000E+000  0.000000E+000 -0.935612E-003
  0.000000E+000  0.000000E+000  0.137275E+000  0.000000E+000  0.000000E+000 -0.935889E-003
  0.000000E+000  0.000000E+000  0.139279E+000  0.000000E+000  0.000000E+000 -0.936124E-003
  0.000000E+000  0.000000E+000  0.141283E+000  0.000000E+000  0.000000E+000 -0.936368E-003
  0.000000E+000  0.000000E+000  0.143287E+000  0.000000E+000  0.000000E+000 -0.936812E-003
  0.000000E+000  0.000000E+000  0.145291E+000  0.000000E+000  0.000000E+000 -0.937214E-003
  0.000000E+000  0.000000E+000  0.147295E+000  0.000000E+000  0.000000E+000 -0.937709E-003
  0.000000E+000  0.000000E+000  0.149299E+000  0.000000E+000  0.000000E+000 -0.938168E-003
  0.000000E+000  0.000000E+000  0.151303E+000  0.000000E+000  0.000000E+000 -0.938661E-003
  0.000000E+000  0.000000E+000  0.153307E+000  0.000000E+000  0.000000E+000 -0.939357E-003
  0.000000E+000  0.000000E+000  0.155311E+000  0.000000E+000  0.000000E+000 -0.939892E-003
  0.000000E+000  0.000000E+000  0.157315E+000  0.000000E+000  0.000000E+000 -0.940600E-003
  0.000000E+000  0.000000E+000  0.159319E+000  0.000000E+000  0.000000E+000 -0.941288E-003
  0.000000E+000  0.000000E+000  0.161323E+000  0.000000E+000  0.000000E+000 -0.941950E-003
  0.000000E+000  0.000000E+000  0.163327E+000  0.000000E+000  0.000000E+000 -0.942819E-003
  0.000000E+000  0.000000E+000  0.165331E+000  0.000000E+000  0.000000E+000 -0.943611E-003
  0.000000E+000  0.000000E+000  0.167335E+000  0.000000E+000  0.000000E+000 -0.944621E-003
  0.000000E+000  0.000000E+000  0.169339E+000  0.000000E+000  0.000000E+000 -0.945478E-003
  0.000000E+000  0.000000E+000  0.171343E+000  0.000000E+000  0.000000E+000 -0.946492E-003
  0.000000E+000  0.000000E+000  0.173347E+000  0.000000E+000  0.000000E+000 -0.947700E-003
  0.000000E+000  0.000000E+000  0.175351E+000  0.000000E+000  0.000000E+000 -0.948741E-003
  0.000000E+000  0.000000E+000  0.177355E+000  0.000000E+000  0.000000E+000 -0.950004E-003
  0.000000E+000  0.000000E+000  0.179359E+000  0.000000E+000  0.000000E+000 -0.951191E-003
  0.000000E+000  0.000000E+000  0.181363E+000  0.000000E+000  0.000000E+000 -0.952383E-003
  0.000000E+000  0.000000E+000  0.183367E+000  0.000000E+000  0.000000E+000 -0.953816E-003
  0.000000E+000  0.000000E+000  0.185371E+000  0.000000E+000  0.000000E+000 -0.955118E-003
  0.000000E+000  0.000000E+000  0.187375E+000  0.000000E+000  0.000000E+000 -0.956665E-003
  0.000000E+000  0.000000E+000  0.189379E+000  0.000000E+000  0.000000E+000 -0.958026E-003
  0.000000E+000  0.000000E+000  0.191383E+000  0.000000E+000  0.000000E+000 -0.959514E-003
  0.000000E+000  0.000000E+000  0.193387E+000  0.000000E+000  0.000000E+000 -0.961206E-003
  0.000000E+000  0.000000E+000  0.195391E+000  0.000000E+000  0.000000E+000 -0.962835E-003
  0.000000E+000  0.000000E+000  0.197395E+000  0.000000E+000  0.000000E+000 -0.964635E-003
  0.000000E+000  0.000000E+000  0.199399E+000  0.000000E+000  0.000000E+000 -0.966299E-003
  0.000000E+000  0.000000E+000  0.201403E+000  0.000000E+000  0.000000E+000 -0.968089E-003
  0.000000E+000  0.000000E+000  0.203407E+000  0.000000E+000  0.000000E+000 -0.970022E-003
  0.000000E+000  0.000000E+000  0.205411E+000  0.000000E+000  0.000000E+000 -0.971896E-003
  0.000000E+000  0.000000E+000  0.207415E+000  0.000000E+000  0.000000E+000 -0.973946E-003
  0.000000E+000  0.000000E+000  0.209419E+000  0.000000E+000  0.000000E+000 -0.975931E-003
  0.000000E+000  0.000000E+000  0.211423E+000  0.000000E+000  0.000000E+000 -0.977933E-003
  0.000000E+000  0.000000E+000  0.213427E+000  0.000000E+000  0.000000E+000 -0.980228E-003
  0.000000E+000  0.000000E+000  0.215431E+000  0.000000E+000  0.000000E+000 -0.982425E-003
  0.000000E+000  0.000000E+000  0.217435E+000  0.000000E+000  0.000000E+000 -0.984771E-003
  0.000000E+000  0.000000E+000  0.219439E+000  0.000000E+000  0.000000E+000 -0.987048E-003
  0.000000E+000  0.000000E+000  0.221443E+000  0.000000E+000  0.000000E+000 -0.989387E-003
  0.000000E+000  0.000000E+000  0.223447E+000  0.000000E+000  0.000000E+000 -0.991995E-003
  0.000000E+000  0.000000E+000  0.225451E+000  0.000000E+000  0.000000E+000 -0.994457E-003
  0.000000E+000  0.000000E+000  0.227455E+000  0.000000E+000  0.000000E+000 -0.997115E-003
  0.000000E+000  0.000000E+000  0.229459E+000  0.000000E+000  0.000000E+000 -0.999780E-003
  0.000000E+000  0.000000E+000  0.231463E+000  0.000000E+000  0.000000E+000 -0.100239E-002
  0.000000E+000  0.000000E+000  0.233467E+000  0.000000E+000  0.000000E+000 -0.100527E-002
  0.000000E+000  0.000000E+000  0.235471E+000  0.000000E+000  0.000000E+000 -0.100801E-002
  0.000000E+000  0.000000E+000  0.237475E+000  0.000000E+000  0.000000E+000 -0.101106E-002
  0.000000E+000  0.000000E+000  0.239479E+000  0.000000E+000  0.000000E+000 -0.101396E-002
  0.000000E+000  0.000000E+000  0.241483E+000  0.000000E+000  0.000000E+000 -0.101704E-002
  0.000000E+000  0.000000E+000  0.243487E+000  0.000000E+000  0.000000E+000 -0.102035E-002
  0.000000E+000  0.000000E+000  0.245491E+000  0.000000E+000  0.000000E+000 -0.102345E-002
  0.000000E+000  0.000000E+000  0.247495E+000  0.000000E+000  0.000000E+000 -0.102683E-002
  0.000000E+000  0.000000E+000  0.249499E+000  0.000000E+000  0.000000E+000 -0.103006E-002
  0.000000E+000  0.000000E+000  0.251503E+000  0.000000E+000  0.000000E+000 -0.103340E-002
  0.000000E+000  0.000000E+000  0.253507E+000  0.000000E+000  0.000000E+000 -0.103701E-002
  0.000000E+000  0.000000E+000  0.255511E+000  0.000000E+000  0.000000E+000 -0.104049E-002
  0.000000E+000  0.000000E+000  0.257515E+000  0.000000E+000  0.000000E+000 -0.104424E-002
  0.000000E+000  0.000000E+000  0.259519E+000  0.000000E+000  0.000000E+000 -0.104781E-002
  0.000000E+000  0.000000E+000  0.261523E+000  0.000000E+000  0.000000E+000 -0.105149E-002
  0.000000E+000  0.000000E+000  0.263527E+000  0.000000E+000  0.000000E+000 -0.105539E-002
  0.000000E+000  0.000000E+000  0.265531E+000  0.000000E+000  0.000000E+000 -0.105924E-002
  0.000000E+000  0.000000E+000  0.267535E+000  0.000000E+000  0.000000E+000 -0.106331E-002
  0.000000E+000  0.000000E+000  0.269539E+000  0.000000E+000  0.000000E+000 -0.106724E-002
  0.000000E+000  0.000000E+000  0.271543E+000  0.000000E+000  0.000000E+000 -0.107132E-002
  0.000000E+000  0.000000E+000  0.273547E+000  0.000000E+000  0.000000E+000 -0.107560E-002
  0.000000E+000  0.000000E+000  0.275551E+000  0.000000E+000  0.000000E+000 -0.107982E-002
  0.000000E+000  0.000000E+000  0.277555E+000  0.000000E+000  0.000000E+000 -0.108429E-002
  0.000000E+000  0.000000E+000  0.279559E+000  0.000000E+000  0.000000E+000 -0.108864E-002
  0.000000E+000  0.000000E+000  0.281563E+000  0.000000E+000  0.000000E+000 -0.109304E-002
  0.000000E+000  0.000000E+000  0.283567E+000  0.000000E+000  0.000000E+000 -0.109767E-002
  0.000000E+000  0.000000E+000  0.285571E+000  0.000000E+000  0.000000E+000 -0.110221E-002
  0.000000E+000  0.000000E+000  0.287575E+000  0.000000E+000  0.000000E+000 -0.110699E-002
  0.000000E+000  0.000000E+000  0.289579E+000  0.000000E+000  0.000000E+000 -0.111170E-002
  0.000000E+000  0.000000E+000  0.291583E+000  0.000000E+000  0.000000E+000 -0.111641E-002
  0.000000E+000  0.000000E+000  0.293587E+000  0.000000E+000  0.000000E+000 -0.112149E-002
  0.000000E+000  0.000000E+000  0.295591E+000  0.000000E+000  0.000000E+000 -0.112633E-002
  0.000000E+000  0.000000E+000  0.297595E+000  0.000000E+000  0.000000E+000 -0.113156E-002
  0.000000E+000  0.000000E+000  0.299599E+000  0.000000E+000  0.000000E+000 -0.113662E-002
  0.000000E+000  0.000000E+000  0.301603E+000  0.000000E+000  0.000000E+000 -0.114166E-002
  0.000000E+000  0.000000E+000  0.303607E+000  0.000000E+000  0.000000E+000 -0.114702E-002
  0.000000E+000  0.000000E+000  0.305611E+000  0.000000E+000  0.000000E+000 -0.115220E-002
  0.000000E+000  0.000000E+000  0.307615E+000  0.000000E+000  0.000000E+000 -0.115771E-002
  0.000000E+000  0.000000E+000  0.309619E+000  0.000000E+000  0.000000E+000 -0.116299E-002
  0.000000E+000  0.000000E+000  0.311623E+000  0.000000E+000  0.000000E+000 -0.116848E-002
  0.000000E+000  0.000000E+000  0.313627E+000  0.000000E+000  0.000000E+000 -0.117428E-002
  0.000000E+000  0.000000E+000  0.315631E+000  0.000000E+000  0.000000E+000 -0.117988E-002
  0.000000E+000  0.000000E+000  0.317635E+000  0.000000E+000  0.000000E+000 -0.118584E-002
  0.000000E+000  0.000000E+000  0.319639E+000  0.000000E+000  0.000000E+000 -0.119152E-002
  0.000000E+000  0.000000E+000  0.321643E+000  0.000000E+000  0.000000E+000 -0.119738E-002
  0.000000E+000  0.000000E+000  0.323647E+000  0.000000E+000  0.000000E+000 -0.120345E-002
  0.000000E+000  0.000000E+000  0.325651E+000  0.000000E+000  0.000000E+000 -0.120951E-002
  0.000000E+000  0.000000E+000  0.327655E+000  0.000000E+000  0.000000E+000 -0.121595E-002
  0.000000E+000  0.000000E+000  0.329659E+000  0.000000E+000  0.000000E+000 -0.122221E-002
  0.000000E+000  0.000000E+000  0.331663E+000  0.000000E+000  0.000000E+000 -0.122852E-002
  0.000000E+000  0.000000E+000  0.333667E+000  0.000000E+000  0.000000E+000 -0.123514E-002
  0.000000E+000  0.000000E+000  0.335671E+000  0.000000E+000  0.000000E+000 -0.124169E-002
  0.000000E+000  0.000000E+000  0.337675E+000  0.000000E+000  0.000000E+000 -0.124838E-002
  0.000000E+000  0.000000E+000  0.339679E+000  0.000000E+000  0.000000E+000 -0.125506E-002
  0.000000E+000  0.000000E+000  0.341683E+000  0.000000E+000  0.000000E+000 -0.126180E-002
  0.000000E+000  0.000000E+000  0.343687E+000  0.000000E+000  0.000000E+000 -0.126876E-002
  0.000000E+000  0.000000E+000  0.345691E+000  0.000000E+000  0.000000E+000 -0.127548E-002
  0.000000E+000  0.000000E+000  0.347695E+000  0.000000E+000  0.000000E+000 -0.128245E-002
  0.000000E+000  0.000000E+000  0.349699E+000  0.000000E+000  0.000000E+000 -0.128940E-002
  0.000000E+000  0.000000E+000  0.351703E+000  0.000000E+000  0.000000E+000 -0.129637E-002
  0.000000E+000  0.000000E+000  0.353707E+000  0.000000E+000  0.000000E+000 -0.130373E-002
  0.000000E+000  0.000000E+000  0.355711E+000  0.000000E+000  0.000000E+000 -0.131098E-002
  0.000000E+000  0.000000E+000  0.357715E+000  0.000000E+000  0.000000E+000 -0.131838E-002
  0.000000E+000  0.000000E+000  0.359719E+000  0.000000E+000  0.000000E+000 -0.132587E-002
  0.000000E+000  0.000000E+000  0.361723E+000  0.000000E+000  0.000000E+000 -0.133353E-002
  0.000000E+000  0.000000E+000  0.363727E+000  0.000000E+000  0.000000E+000 -0.134143E-002
  0.000000E+000  0.000000E+000  0.365731E+000  0.000000E+000  0.000000E+000 -0.134902E-002
  0.000000E+000  0.000000E+000  0.367735E+000  0.000000E+000  0.000000E+000 -0.135696E-002
  0.000000E+000  0.000000E+000  0.369739E+000  0.000000E+000  0.000000E+000 -0.136485E-002
  0.000000E+000  0.000000E+000  0.371743E+000  0.000000E+000  0.000000E+000 -0.137263E-002
  0.000000E+000  0.000000E+000  0.373747E+000  0.000000E+000  0.000000E+000 -0.138073E-002
  0.000000E+000  0.000000E+000  0.375752E+000  0.000000E+000  0.000000E+000 -0.138854E-002
  0.000000E+000  0.000000E+000  0.377756E+000  0.000000E+000  0.000000E+000 -0.139672E-002
  0.000000E+000  0.000000E+000  0.379760E+000  0.000000E+000  0.000000E+000 -0.140461E-002
  0.000000E+000  0.000000E+000  0.381764E+000  0.000000E+000  0.000000E+000 -0.141254E-002
  0.000000E+000  0.000000E+000  0.383768E+000  0.000000E+000  0.000000E+000 -0.142096E-002
  0.000000E+000  0.000000E+000  0.385772E+000  0.000000E+000  0.000000E+000 -0.142920E-002
  0.000000E+000  0.000000E+000  0.387776E+000  0.000000E+000  0.000000E+000 -0.143766E-002
  0.000000E+000  0.000000E+000  0.389780E+000  0.000000E+000  0.000000E+000 -0.144590E-002
  0.000000E+000  0.000000E+000  0.391784E+000  0.000000E+000  0.000000E+000 -0.145428E-002
  0.000000E+000  0.000000E+000  0.393788E+000  0.000000E+000  0.000000E+000 -0.146306E-002
  0.000000E+000  0.000000E+000  0.395792E+000  0.000000E+000  0.000000E+000 -0.147143E-002
  0.000000E+000  0.000000E+000  0.397796E+000  0.000000E+000  0.000000E+000 -0.148033E-002
  0.000000E+000  0.000000E+000  0.399800E+000  0.000000E+000  0.000000E+000 -0.148887E-002
  0.000000E+000  0.000000E+000  0.401804E+000  0.000000E+000  0.000000E+000 -0.149751E-002
  0.000000E+000  0.000000E+000  0.403808E+000  0.000000E+000  0.000000E+000 -0.150634E-002
  0.000000E+000  0.000000E+000  0.405812E+000  0.000000E+000  0.000000E+000 -0.151524E-002
  0.000000E+000  0.000000E+000  0.407816E+000  0.000000E+000  0.000000E+000 -0.152412E-002
  0.000000E+000  0.000000E+000  0.409820E+000  0.000000E+000  0.000000E+000 -0.153303E-002
  0.000000E+000  0.000000E+000  0.411824E+000  0.000000E+000  0.000000E+000 -0.154193E-002
  0.000000E+000  0.000000E+000  0.413828E+000  0.000000E+000  0.000000E+000 -0.155108E-002
  0.000000E+000  0.000000E+000  0.415832E+000  0.000000E+000  0.000000E+000 -0.156008E-002
  0.000000E+000  0.000000E+000  0.417836E+000  0.000000E+000  0.000000E+000 -0.156932E-002
  0.000000E+000  0.000000E+000  0.419840E+000  0.000000E+000  0.000000E+000 -0.157831E-002
  0.000000E+000  0.000000E+000  0.421844E+000  0.000000E+000  0.000000E+000 -0.158731E-002
  0.000000E+000  0.000000E+000  0.423848E+000  0.000000E+000  0.000000E+000 -0.159656E-002
  0.000000E+000  0.000000E+000  0.425852E+000  0.000000E+000  0.000000E+000 -0.160578E-002
  0.000000E+000  0.000000E+000  0.427856E+000  0.000000E+000  0.000000E+000 -0.161517E-002
  0.000000E+000  0.000000E+000  0.429860E+000  0.000000E+000  0.000000E+000 -0.162435E-002
  0.000000E+000  0.000000E+000  0.431864E+000  0.000000E+000  0.000000E+000 -0.163323E-002
  0.000000E+000  0.000000E+000  0.433868E+000  0.000000E+000  0.000000E+000 -0.164281E-002
  0.000000E+000  0.000000E+000  0.435872E+000  0.000000E+000  0.000000E+000 -0.165178E-002
  0.000000E+000  0.000000E+000  0.437876E+000  0.000000E+000  0.000000E+000 -0.166114E-002
  0.000000E+000  0.000000E+000  0.439880E+000  0.000000E+000  0.000000E+000 -0.167028E-002
  0.000000E+000  0.000000E+000  0.441884E+000  0.000000E+000  0.000000E+000 -0.167932E-002
  0.000000E+000  0.000000E+000  0.443888E+000  0.000000E+000  0.000000E+000 -0.168917E-002
  0.000000E+000  0.000000E+000  0.445892E+000  0.000000E+000  0.000000E+000 -0.169829E-002
  0.000000E+000  0.000000E+000  0.447896E+000  0.000000E+000  0.000000E+000 -0.170796E-002
  0.000000E+000  0.000000E+000  0.449900E+000  0.000000E+000  0.000000E+000 -0.171720E-002
  0.000000E+000  0.000000E+000  0.451904E+000  0.000000E+000  0.000000E+000 -0.172602E-002
  0.000000E+000  0.000000E+000  0.453908E+000  0.000000E+000  0.000000E+000 -0.173560E-002
  0.000000E+000  0.000000E+000  0.455912E+000  0.000000E+000  0.000000E+000 -0.174468E-002
  0.000000E+000  0.000000E+000  0.457916E+000  0.000000E+000  0.000000E+000 -0.175408E-002
  0.000000E+000  0.000000E+000  0.459920E+000  0.000000E+000  0.000000E+000 -0.176309E-002
  0.000000E+000  0.000000E+000  0.461924E+000  0.000000E+000  0.000000E+000 -0.177245E-002
  0.000000E+000  0.000000E+000  0.463928E+000  0.000000E+000  0.000000E+000 -0.178220E-002
  0.000000E+000  0.000000E+000  0.465932E+000  0.000000E+000  0.000000E+000 -0.179128E-002
  0.000000E+000  0.000000E+000  0.467936E+000  0.000000E+000  0.000000E+000 -0.180101E-002
  0.000000E+000  0.000000E+000  0.469940E+000  0.000000E+000  0.000000E+000 -0.181059E-002
  0.000000E+000  0.000000E+000  0.471944E+000  0.000000E+000  0.000000E+000 -0.181996E-002
  0.000000E+000  0.000000E+000  0.473948E+000  0.000000E+000  0.000000E+000 -0.182974E-002
  0.000000E+000  0.000000E+000  0.475952E+000  0.000000E+000  0.000000E+000 -0.183925E-002
  0.000000E+000  0.000000E+000  0.477956E+000  0.000000E+000  0.000000E+000 -0.184927E-002
  0.000000E+000  0.000000E+000  0.479960E+000  0.000000E+000  0.000000E+000 -0.185855E-002
  0.000000E+000  0.000000E+000  0.481964E+000  0.000000E+000  0.000000E+000 -0.186793E-002
  0.000000E+000  0.000000E+000  0.483968E+000  0.000000E+000  0.000000E+000 -0.187768E-002
  0.000000E+000  0.000000E+000  0.485972E+000  0.000000E+000  0.000000E+000 -0.188703E-002
  0.000000E+000  0.000000E+000  0.487976E+000  0.000000E+000  0.000000E+000 -0.189690E-002
  0.000000E+000  0.000000E+000  0.489980E+000  0.000000E+000  0.000000E+000 -0.190634E-002
  0.000000E+000  0.000000E+000  0.491984E+000  0.000000E+000  0.000000E+000 -0.191568E-002
  0.000000E+000  0.000000E+000  0.493988E+000  0.000000E+000  0.000000E+000 -0.192537E-002
  0.000000E+000  0.000000E+000  0.495992E+000  0.000000E+000  0.000000E+000 -0.193469E-002
  0.000000E+000  0.000000E+000  0.497996E+000  0.000000E+000  0.000000E+000 -0.194446E-002
  0.000000E+000  0.000000E+000  0.500000E+000  0.000000E+000  0.000000E+000 -0.195359E-002
  0.000000E+000  0.000000E+000  0.502004E+000  0.000000E+000  0.000000E+000 -0.196279E-002
  0.000000E+000  0.000000E+000  0.504008E+000  0.000000E+000  0.000000E+000 -0.197253E-002
  0.000000E+000  0.000000E+000  0.506012E+000  0.000000E+000  0.000000E+000 -0.198161E-002
  0.000000E+000  0.000000E+000  0.508016E+000  0.000000E+000  0.000000E+000 -0.199122E-002
  0.000000E+000  0.000000E+000  0.510020E+000  0.000000E+000  0.000000E+000 -0.200012E-002
  0.000000E+000  0.000000E+000  0.512024E+000  0.000000E+000  0.000000E+000 -0.200930E-002
  0.000000E+000  0.000000E+000  0.514028E+000  0.000000E+000  0.000000E+000 -0.201895E-002
  0.000000E+000  0.000000E+000  0.516032E+000  0.000000E+000  0.000000E+000 -0.202825E-002
  0.000000E+000  0.000000E+000  0.518036E+000  0.000000E+000  0.000000E+000 -0.203800E-002
  0.000000E+000  0.000000E+000  0.520040E+000  0.000000E+000  0.000000E+000 -0.204747E-002
  0.000000E+000  0.000000E+000  0.522044E+000  0.000000E+000  0.000000E+000 -0.205674E-002
  0.000000E+000  0.000000E+000  0.524048E+000  0.000000E+000  0.000000E+000 -0.206638E-002
  0.000000E+000  0.000000E+000  0.526052E+000  0.000000E+000  0.000000E+000 -0.207500E-002
  0.000000E+000  0.000000E+000  0.528056E+000  0.000000E+000  0.000000E+000 -0.208413E-002
  0.000000E+000  0.000000E+000  0.530060E+000  0.000000E+000  0.000000E+000 -0.209284E-002
  0.000000E+000  0.000000E+000  0.532064E+000  0.000000E+000  0.000000E+000 -0.210160E-002
  0.000000E+000  0.000000E+000  0.534068E+000  0.000000E+000  0.000000E+000 -0.211072E-002
  0.000000E+000  0.000000E+000  0.536072E+000  0.000000E+000  0.000000E+000 -0.211947E-002
  0.000000E+000  0.000000E+000  0.538076E+000  0.000000E+000  0.000000E+000 -0.212840E-002
  0.000000E+000  0.000000E+000  0.540080E+000  0.000000E+000  0.000000E+000 -0.213673E-002
  0.000000E+000  0.000000E+000  0.542084E+000  0.000000E+000  0.000000E+000 -0.214514E-002
  0.000000E+000  0.000000E+000  0.544088E+000  0.000000E+000  0.000000E+000 -0.215418E-002
  0.000000E+000  0.000000E+000  0.546092E+000  0.000000E+000  0.000000E+000 -0.216315E-002
  0.000000E+000  0.000000E+000  0.548096E+000  0.000000E+000  0.000000E+000 -0.217218E-002
  0.000000E+000  0.000000E+000  0.550100E+000  0.000000E+000  0.000000E+000 -0.218085E-002
  0.000000E+000  0.000000E+000  0.552104E+000  0.000000E+000  0.000000E+000 -0.218957E-002
  0.000000E+000  0.000000E+000  0.554108E+000  0.000000E+000  0.000000E+000 -0.219870E-002
  0.000000E+000  0.000000E+000  0.556112E+000  0.000000E+000  0.000000E+000 -0.220699E-002
  0.000000E+000  0.000000E+000  0.558116E+000  0.000000E+000  0.000000E+000 -0.221603E-002
  0.000000E+000  0.000000E+000  0.560120E+000  0.000000E+000  0.000000E+000 -0.222431E-002
  0.000000E+000  0.000000E+000  0.562124E+000  0.000000E+000  0.000000E+000 -0.223235E-002
  0.000000E+000  0.000000E+000  0.564128E+000  0.000000E+000  0.000000E+000 -0.224036E-002
  0.000000E+000  0.000000E+000  0.566132E+000  0.000000E+000  0.000000E+000 -0.224834E-002
  0.000000E+000  0.000000E+000  0.568136E+000  0.000000E+000  0.000000E+000 -0.225635E-002
  0.000000E+000  0.000000E+000  0.570140E+000  0.000000E+000  0.000000E+000 -0.226405E-002
  0.000000E+000  0.000000E+000  0.572144E+000  0.000000E+000  0.000000E+000 -0.227162E-002
  0.000000E+000  0.000000E+000  0.574148E+000  0.000000E+000  0.000000E+000 -0.227961E-002
  0.000000E+000  0.000000E+000  0.576152E+000  0.000000E+000  0.000000E+000 -0.228695E-002
  0.000000E+000  0.000000E+000  0.578156E+000  0.000000E+000  0.000000E+000 -0.229502E-002
  0.000000E+000  0.000000E+000  0.580160E+000  0.000000E+000  0.000000E+000 -0.230243E-002
  0.000000E+000  0.000000E+000  0.582164E+000  0.000000E+000  0.000000E+000 -0.230985E-002
  0.000000E+000  0.000000E+000  0.584168E+000  0.000000E+000  0.000000E+000 -0.231787E-002
  0.000000E+000  0.000000E+000  0.586172E+000  0.000000E+000  0.000000E+000 -0.232532E-002
  0.000000E+000  0.000000E+000  0.588176E+000  0.000000E+000  0.000000E+000 -0.233348E-002
  0.000000E+000  0.000000E+000  0.590180E+000  0.000000E+000  0.000000E+000 -0.234043E-002
  0.000000E+000  0.000000E+000  0.592184E+000  0.000000E+000  0.000000E+000 -0.234781E-002
  0.000000E+000  0.000000E+000  0.594188E+000  0.000000E+000  0.000000E+000 -0.235563E-002
  0.000000E+000  0.000000E+000  0.596192E+000  0.000000E+000  0.000000E+000 -0.236288E-002
  0.000000E+000  0.000000E+000  0.598196E+000  0.000000E+000  0.000000E+000 -0.237069E-002
  0.000000E+000  0.000000E+000  0.600200E+000  0.000000E+000  0.000000E+000 -0.237753E-002
  0.000000E+000  0.000000E+000  0.602204E+000  0.000000E+000  0.000000E+000 -0.238463E-002
  0.000000E+000  0.000000E+000  0.604208E+000  0.000000E+000  0.000000E+000 -0.239202E-002
  0.000000E+000  0.000000E+000  0.606212E+000  0.000000E+000  0.000000E+000 -0.239873E-002
  0.000000E+000  0.000000E+000  0.608216E+000  0.000000E+000  0.000000E+000 -0.240618E-002
  0.000000E+000  0.000000E+000  0.610220E+000  0.000000E+000  0.000000E+000 -0.241234E-002
  0.000000E+000  0.000000E+000  0.612224E+000  0.000000E+000  0.000000E+000 -0.241925E-002
  0.000000E+000  0.000000E+000  0.614228E+000  0.000000E+000  0.000000E+000 -0.242649E-002
  0.000000E+000  0.000000E+000  0.616232E+000  0.000000E+000  0.000000E+000 -0.243329E-002
  0.000000E+000  0.000000E+000  0.618236E+000  0.000000E+000  0.000000E+000 -0.244008E-002
  0.000000E+000  0.000000E+000  0.620240E+000  0.000000E+000  0.000000E+000 -0.244627E-002
  0.000000E+000  0.000000E+000  0.622244E+000  0.000000E+000  0.000000E+000 -0.245279E-002
  0.000000E+000  0.000000E+000  0.624248E+000  0.000000E+000  0.000000E+000 -0.246041E-002
  0.000000E+000  0.000000E+000  0.626253E+000  0.000000E+000  0.000000E+000 -0.246645E-002
  0.000000E+000  0.000000E+000  0.628257E+000  0.000000E+000  0.000000E+000 -0.247322E-002
  0.000000E+000  0.000000E+000  0.630261E+000  0.000000E+000  0.000000E+000 -0.247884E-002
  0.000000E+000  0.000000E+000  0.632265E+000  0.000000E+000  0.000000E+000 -0.248443E-002
  0.000000E+000  0.000000E+000  0.634269E+000  0.000000E+000  0.000000E+000 -0.249048E-002
  0.000000E+000  0.000000E+000  0.636273E+000  0.000000E+000  0.000000E+000 -0.249599E-002
  0.000000E+000  0.000000E+000  0.638277E+000  0.000000E+000  0.000000E+000 -0.250211E-002
  0.000000E+000  0.000000E+000  0.640281E+000  0.000000E+000  0.000000E+000 -0.250787E-002
  0.000000E+000  0.000000E+000  0.642285E+000  0.000000E+000  0.000000E+000 -0.251326E-002
  0.000000E+000  0.000000E+000  0.644289E+000  0.000000E+000  0.000000E+000 -0.251935E-002
  0.000000E+000  0.000000E+000  0.646293E+000  0.000000E+000  0.000000E+000 -0.252497E-002
  0.000000E+000  0.000000E+000  0.648297E+000  0.000000E+000  0.000000E+000 -0.253061E-002
  0.000000E+000  0.000000E+000  0.650301E+000  0.000000E+000  0.000000E+000 -0.253583E-002
  0.000000E+000  0.000000E+000  0.652305E+000  0.000000E+000  0.000000E+000 -0.254083E-002
  0.000000E+000  0.000000E+000  0.654309E+000  0.000000E+000  0.000000E+000 -0.254631E-002