title = "dataset transp-updrld"
variables = "x", "y", "z", "h_w", "p_w", "s_w", "theta_a", "s_a", "theta_g", "q_root"
zone t = "Flow variables, solution time =  5.000E+01 days        " i =  500, j =    1, k =    1,  f=point
  0.000000E+000  0.000000E+000  0.000000E+000 -0.100000E+003 -0.100000E+003  0.214462E+000  0.115809E+000  0.785538E+000  0.424191E+000  0.000000E+000
  0.000000E+000  0.000000E+000  0.200401E-002 -0.688444E+002 -0.688464E+002  0.229432E+000  0.123893E+000  0.770568E+000  0.416107E+000  0.452913E-008
  0.000000E+000  0.000000E+000  0.400802E-002 -0.546358E+002 -0.546398E+002  0.240388E+000  0.129809E+000  0.759612E+000  0.410191E+000  0.000000E+000
  0.000000E+000  0.000000E+000  0.601202E-002 -0.464489E+002 -0.464549E+002  0.248967E+000  0.134442E+000  0.751033E+000  0.405558E+000  0.120721E-007
  0.000000E+000  0.000000E+000  0.801603E-002 -0.410622E+002 -0.410702E+002  0.256016E+000  0.138249E+000  0.743984E+000  0.401751E+000  0.000000E+000
  0.000000E+000  0.000000E+000  0.100200E-001 -0.372079E+002 -0.372179E+002  0.262007E+000  0.141484E+000  0.737993E+000  0.398516E+000  0.000000E+000
  0.000000E+000  0.000000E+000  0.120240E-001 -0.342877E+002 -0.342997E+002  0.267228E+000  0.144303E+000  0.732772E+000  0.395697E+000  0.217288E-007
  0.000000E+000  0.000000E+000  0.140281E-001 -0.319823E+002 -0.319963E+002  0.271861E+000  0.146805E+000  0.728139E+000  0.393195E+000  0.000000E+000
  0.000000E+000  0.000000E+000  0.160321E-001 -0.301050E+002 -0.301211E+002  0.276033E+000  0.149058E+000  0.723967E+000  0.390942E+000  0.270859E-007
  0.000000E+000  0.000000E+000  0.180361E-001 -0.285392E+002 -0.285573E+002  0.279833E+000  0.151110E+000  0.720167E+000  0.388890E+000  0.000000E+000
  0.000000E+000  0.000000E+000  0.200401E-001 -0.272080E+002 -0.272280E+002  0.283325E+000  0.152996E+000  0.716675E+000  0.387004E+000  0.000000E+000
  0.000000E+000  0.000000E+000  0.220441E-001 -0.260583E+002 -0.260804E+002  0.286560E+000  0.154742E+000  0.713440E+000  0.385258E+000  0.339561E-007
  0.000000E+000  0.000000E+000  0.240481E-001 -0.250526E+002 -0.250766E+002  0.289575E+000  0.156371E+000  0.710425E+000  0.383629E+000  0.000000E+000
  0.000000E+000  0.000000E+000  0.260521E-001 -0.241631E+002 -0.241891E+002  0.292401E+000  0.157897E+000  0.707599E+000  0.382103E+000  0.379487E-007
  0.000000E+000  0.000000E+000  0.280561E-001 -0.233690E+002 -0.233971E+002  0.295062E+000  0.159333E+000  0.704938E+000  0.380667E+000  0.000000E+000
  0.000000E+000  0.000000E+000  0.300601E-001 -0.226545E+002 -0.226846E+002  0.297577E+000  0.160691E+000  0.702423E+000  0.379309E+000  0.000000E+000
  0.000000E+000  0.000000E+000  0.320641E-001 -0.220071E+002 -0.220391E+002  0.299963E+000  0.161980E+000  0.700037E+000  0.378020E+000  0.432742E-007
  0.000000E+000  0.000000E+000  0.340681E-001 -0.214167E+002 -0.214508E+002  0.302234E+000  0.163206E+000  0.697766E+000  0.376794E+000  0.000000E+000
  0.000000E+000  0.000000E+000  0.360721E-001 -0.208756E+002 -0.209117E+002  0.304401E+000  0.164376E+000  0.695599E+000  0.375624E+000  0.464695E-007
  0.000000E+000  0.000000E+000  0.380762E-001 -0.203771E+002 -0.204152E+002  0.306474E+000  0.165496E+000  0.693526E+000  0.374504E+000  0.000000E+000
  0.000000E+000  0.000000E+000  0.400802E-001 -0.199159E+002 -0.199560E+002  0.308461E+000  0.166569E+000  0.691539E+000  0.373431E+000  0.000000E+000
  0.000000E+000  0.000000E+000  0.420842E-001 -0.194876E+002 -0.195297E+002  0.310371E+000  0.167600E+000  0.689629E+000  0.372400E+000  0.508367E-007
  0.000000E+000  0.000000E+000  0.440882E-001 -0.190884E+002 -0.191324E+002  0.312209E+000  0.168593E+000  0.687791E+000  0.371407E+000  0.000000E+000
  0.000000E+000  0.000000E+000  0.460922E-001 -0.187150E+002 -0.187611E+002  0.313981E+000  0.169550E+000  0.686019E+000  0.370450E+000  0.535100E-007
  0.000000E+000  0.000000E+000  0.480962E-001 -0.183649E+002 -0.184130E+002  0.315692E+000  0.170474E+000  0.684308E+000  0.369526E+000  0.000000E+000
  0.000000E+000  0.000000E+000  0.501002E-001 -0.180356E+002 -0.180857E+002  0.317346E+000  0.171367E+000  0.682654E+000  0.368633E+000  0.000000E+000
  0.000000E+000  0.000000E+000  0.521042E-001 -0.177252E+002 -0.177773E+002  0.318948E+000  0.172232E+000  0.681052E+000  0.367768E+000  0.572224E-007
  0.000000E+000  0.000000E+000  0.541082E-001 -0.174319E+002 -0.174860E+002  0.320501E+000  0.173071E+000  0.679499E+000  0.366929E+000  0.000000E+000
  0.000000E+000  0.000000E+000  0.561122E-001 -0.171541E+002 -0.172102E+002  0.322008E+000  0.173884E+000  0.677992E+000  0.366116E+000  0.595261E-007
  0.000000E+000  0.000000E+000  0.581162E-001 -0.168906E+002 -0.169487E+002  0.323472E+000  0.174675E+000  0.676528E+000  0.365325E+000  0.000000E+000
  0.000000E+000  0.000000E+000  0.601202E-001 -0.166400E+002 -0.167002E+002  0.324895E+000  0.175443E+000  0.675105E+000  0.364557E+000  0.000000E+000
  0.000000E+000  0.000000E+000  0.621242E-001 -0.164015E+002 -0.164636E+002  0.326281E+000  0.176191E+000  0.673719E+000  0.363809E+000  0.644592E-007
  0.000000E+000  0.000000E+000  0.641283E-001 -0.161740E+002 -0.162381E+002  0.327630E+000  0.176920E+000  0.672370E+000  0.363080E+000  0.000000E+000
  0.000000E+000  0.000000E+000  0.661323E-001 -0.159566E+002 -0.160228E+002  0.328946E+000  0.177631E+000  0.671054E+000  0.362369E+000  0.681043E-007
  0.000000E+000  0.000000E+000  0.681363E-001 -0.157487E+002 -0.158169E+002  0.330229E+000  0.178324E+000  0.669771E+000  0.361676E+000  0.000000E+000
  0.000000E+000  0.000000E+000  0.701403E-001 -0.155496E+002 -0.156197E+002  0.331483E+000  0.179001E+000  0.668517E+000  0.360999E+000  0.000000E+000
  0.000000E+000  0.000000E+000  0.721443E-001 -0.153586E+002 -0.154308E+002  0.332707E+000  0.179662E+000  0.667293E+000  0.360338E+000  0.711227E-007
  0.000000E+000  0.000000E+000  0.741483E-001 -0.151752E+002 -0.152494E+002  0.333904E+000  0.180308E+000  0.666096E+000  0.359692E+000  0.000000E+000
  0.000000E+000  0.000000E+000  0.761523E-001 -0.149989E+002 -0.150751E+002  0.335074E+000  0.180940E+000  0.664926E+000  0.359060E+000  0.746562E-007
  0.000000E+000  0.000000E+000  0.781563E-001 -0.148293E+002 -0.149074E+002  0.336220E+000  0.181559E+000  0.663780E+000  0.358441E+000  0.000000E+000
  0.000000E+000  0.000000E+000  0.801603E-001 -0.146658E+002 -0.147460E+002  0.337343E+000  0.182165E+000  0.662657E+000  0.357835E+000  0.000000E+000
  0.000000E+000  0.000000E+000  0.821643E-001 -0.145082E+002 -0.145904E+002  0.338442E+000  0.182759E+000  0.661558E+000  0.357241E+000  0.995185E-007
  0.000000E+000  0.000000E+000  0.841683E-001 -0.143561E+002 -0.144403E+002  0.339520E+000  0.183341E+000  0.660480E+000  0.356659E+000  0.000000E+000
  0.000000E+000  0.000000E+000  0.861723E-001 -0.142092E+002 -0.142953E+002  0.340577E+000  0.183912E+000  0.659423E+000  0.356088E+000  0.819167E-007
  0.000000E+000  0.000000E+000  0.881764E-001 -0.140671E+002 -0.141553E+002  0.341614E+000  0.184472E+000  0.658386E+000  0.355528E+000  0.254844E-007
  0.000000E+000  0.000000E+000  0.901804E-001 -0.139296E+002 -0.140198E+002  0.342632E+000  0.185021E+000  0.657368E+000  0.354979E+000  0.000000E+000
  0.000000E+000  0.000000E+000  0.921844E-001 -0.137965E+002 -0.138887E+002  0.343632E+000  0.185561E+000  0.656368E+000  0.354439E+000  0.845307E-007
  0.000000E+000  0.000000E+000  0.941884E-001 -0.136675E+002 -0.137617E+002  0.344614E+000  0.186092E+000  0.655386E+000  0.353908E+000  0.000000E+000
  0.000000E+000  0.000000E+000  0.961924E-001 -0.135424E+002 -0.136386E+002  0.345580E+000  0.186613E+000  0.654420E+000  0.353387E+000  0.109876E-006
  0.000000E+000  0.000000E+000  0.981964E-001 -0.134210E+002 -0.135192E+002  0.346529E+000  0.187125E+000  0.653471E+000  0.352875E+000  0.000000E+000
  0.000000E+000  0.000000E+000  0.100200E+000 -0.133032E+002 -0.134034E+002  0.347462E+000  0.187630E+000  0.652538E+000  0.352370E+000  0.000000E+000
  0.000000E+000  0.000000E+000  0.102204E+000 -0.131886E+002 -0.132908E+002  0.348380E+000  0.188125E+000  0.651620E+000  0.351875E+000  0.119126E-006
  0.000000E+000  0.000000E+000  0.104208E+000 -0.130773E+002 -0.131815E+002  0.349284E+000  0.188614E+000  0.650716E+000  0.351386E+000  0.000000E+000
  0.000000E+000  0.000000E+000  0.106212E+000 -0.129689E+002 -0.130751E+002  0.350174E+000  0.189094E+000  0.649826E+000  0.350906E+000  0.122788E-006
  0.000000E+000  0.000000E+000  0.108216E+000 -0.128635E+002 -0.129717E+002  0.351050E+000  0.189567E+000  0.648950E+000  0.350433E+000  0.299614E-007
  0.000000E+000  0.000000E+000  0.110220E+000 -0.127608E+002 -0.128710E+002  0.351914E+000  0.190033E+000  0.648086E+000  0.349967E+000  0.302055E-007
  0.000000E+000  0.000000E+000  0.112224E+000 -0.126607E+002 -0.127730E+002  0.352764E+000  0.190493E+000  0.647236E+000  0.349507E+000  0.972933E-007
  0.000000E+000  0.000000E+000  0.114228E+000 -0.125632E+002 -0.126774E+002  0.353603E+000  0.190946E+000  0.646397E+000  0.349054E+000  0.293319E-007
  0.000000E+000  0.000000E+000  0.116232E+000 -0.124680E+002 -0.125843E+002  0.354430E+000  0.191392E+000  0.645570E+000  0.348608E+000  0.159662E-006
  0.000000E+000  0.000000E+000  0.118236E+000 -0.123752E+002 -0.124934E+002  0.355245E+000  0.191832E+000  0.644755E+000  0.348168E+000  0.000000E+000
  0.000000E+000  0.000000E+000  0.120240E+000 -0.122845E+002 -0.124048E+002  0.356049E+000  0.192267E+000  0.643951E+000  0.347733E+000  0.331201E-007
  0.000000E+000  0.000000E+000  0.122244E+000 -0.121960E+002 -0.123183E+002  0.356843E+000  0.192695E+000  0.643157E+000  0.347305E+000  0.223650E-006
  0.000000E+000  0.000000E+000  0.124248E+000 -0.121095E+002 -0.122337E+002  0.357626E+000  0.193118E+000  0.642374E+000  0.346882E+000  0.765799E-007
  0.000000E+000  0.000000E+000  0.126253E+000 -0.120249E+002 -0.121512E+002  0.358399E+000  0.193536E+000  0.641601E+000  0.346464E+000  0.149660E-006
  0.000000E+000  0.000000E+000  0.128257E+000 -0.119422E+002 -0.120705E+002  0.359163E+000  0.193948E+000  0.640837E+000  0.346052E+000  0.435760E-007
  0.000000E+000  0.000000E+000  0.130261E+000 -0.118613E+002 -0.119915E+002  0.359917E+000  0.194355E+000  0.640083E+000  0.345645E+000  0.877284E-007
  0.000000E+000  0.000000E+000  0.132265E+000 -0.117821E+002 -0.119143E+002  0.360662E+000  0.194758E+000  0.639338E+000  0.345242E+000  0.112035E-006
  0.000000E+000  0.000000E+000  0.134269E+000 -0.117045E+002 -0.118388E+002  0.361398E+000  0.195155E+000  0.638602E+000  0.344845E+000  0.590141E-007
  0.000000E+000  0.000000E+000  0.136273E+000 -0.116286E+002 -0.117649E+002  0.362126E+000  0.195548E+000  0.637874E+000  0.344452E+000  0.144688E-006
  0.000000E+000  0.000000E+000  0.138277E+000 -0.115542E+002 -0.116925E+002  0.362845E+000  0.195936E+000  0.637155E+000  0.344064E+000  0.641850E-007
  0.000000E+000  0.000000E+000  0.140281E+000 -0.114812E+002 -0.116215E+002  0.363556E+000  0.196320E+000  0.636444E+000  0.343680E+000  0.345183E-007
  0.000000E+000  0.000000E+000  0.142285E+000 -0.114097E+002 -0.115520E+002  0.364259E+000  0.196700E+000  0.635741E+000  0.343300E+000  0.194901E-006
  0.000000E+000  0.000000E+000  0.144289E+000 -0.113396E+002 -0.114839E+002  0.364954E+000  0.197075E+000  0.635046E+000  0.342925E+000  0.113189E-006
  0.000000E+000  0.000000E+000  0.146293E+000 -0.112708E+002 -0.114171E+002  0.365642E+000  0.197447E+000  0.634358E+000  0.342553E+000  0.164100E-006
  0.000000E+000  0.000000E+000  0.148297E+000 -0.112033E+002 -0.113516E+002  0.366323E+000  0.197815E+000  0.633677E+000  0.342185E+000  0.876646E-007
  0.000000E+000  0.000000E+000  0.150301E+000 -0.111370E+002 -0.112873E+002  0.366997E+000  0.198178E+000  0.633003E+000  0.341822E+000  0.788400E-007
  0.000000E+000  0.000000E+000  0.152305E+000 -0.110719E+002 -0.112242E+002  0.367664E+000  0.198538E+000  0.632336E+000  0.341462E+000  0.239921E-006
  0.000000E+000  0.000000E+000  0.154309E+000 -0.110080E+002 -0.111623E+002  0.368324E+000  0.198895E+000  0.631676E+000  0.341105E+000  0.351423E-007
  0.000000E+000  0.000000E+000  0.156313E+000 -0.109452E+002 -0.111015E+002  0.368978E+000  0.199248E+000  0.631022E+000  0.340752E+000  0.164318E-006
  0.000000E+000  0.000000E+000  0.158317E+000 -0.108834E+002 -0.110417E+002  0.369625E+000  0.199598E+000  0.630375E+000  0.340402E+000  0.100433E-006
  0.000000E+000  0.000000E+000  0.160321E+000 -0.108227E+002 -0.109830E+002  0.370266E+000  0.199944E+000  0.629734E+000  0.340056E+000  0.295595E-007
  0.000000E+000  0.000000E+000  0.162325E+000 -0.107630E+002 -0.109254E+002  0.370902E+000  0.200287E+000  0.629098E+000  0.339713E+000  0.190405E-006
  0.000000E+000  0.000000E+000  0.164329E+000 -0.107043E+002 -0.108687E+002  0.371531E+000  0.200627E+000  0.628469E+000  0.339373E+000  0.679103E-007
  0.000000E+000  0.000000E+000  0.166333E+000 -0.106466E+002 -0.108129E+002  0.372155E+000  0.200964E+000  0.627845E+000  0.339036E+000  0.240125E-006
  0.000000E+000  0.000000E+000  0.168337E+000 -0.105897E+002 -0.107581E+002  0.372773E+000  0.201297E+000  0.627227E+000  0.338703E+000  0.384254E-007
  0.000000E+000  0.000000E+000  0.170341E+000 -0.105338E+002 -0.107041E+002  0.373386E+000  0.201628E+000  0.626614E+000  0.338372E+000  0.149264E-006
  0.000000E+000  0.000000E+000  0.172345E+000 -0.104787E+002 -0.106511E+002  0.373993E+000  0.201956E+000  0.626007E+000  0.338044E+000  0.293562E-006
  0.000000E+000  0.000000E+000  0.174349E+000 -0.104245E+002 -0.105988E+002  0.374596E+000  0.202282E+000  0.625404E+000  0.337718E+000  0.785755E-007
  0.000000E+000  0.000000E+000  0.176353E+000 -0.103710E+002 -0.105474E+002  0.375194E+000  0.202605E+000  0.624806E+000  0.337395E+000  0.251252E-006
  0.000000E+000  0.000000E+000  0.178357E+000 -0.103184E+002 -0.104967E+002  0.375786E+000  0.202925E+000  0.624214E+000  0.337075E+000  0.125167E-006
  0.000000E+000  0.000000E+000  0.180361E+000 -0.102665E+002 -0.104468E+002  0.376374E+000  0.203242E+000  0.623626E+000  0.336758E+000  0.796485E-007
  0.000000E+000  0.000000E+000  0.182365E+000 -0.102153E+002 -0.103977E+002  0.376958E+000  0.203557E+000  0.623042E+000  0.336443E+000  0.269743E-006
  0.000000E+000  0.000000E+000  0.184369E+000 -0.101649E+002 -0.103493E+002  0.377537E+000  0.203870E+000  0.622463E+000  0.336130E+000  0.871286E-007
  0.000000E+000  0.000000E+000  0.186373E+000 -0.101152E+002 -0.103016E+002  0.378111E+000  0.204180E+000  0.621889E+000  0.335820E+000  0.280951E-006
  0.000000E+000  0.000000E+000  0.188377E+000 -0.100661E+002 -0.102545E+002  0.378682E+000  0.204488E+000  0.621318E+000  0.335512E+000  0.409940E-007
  0.000000E+000  0.000000E+000  0.190381E+000 -0.100178E+002 -0.102081E+002  0.379248E+000  0.204794E+000  0.620752E+000  0.335206E+000  0.116395E-006
  0.000000E+000  0.000000E+000  0.192385E+000 -0.997003E+001 -0.101624E+002  0.379810E+000  0.205097E+000  0.620190E+000  0.334903E+000  0.265464E-006
  0.000000E+000  0.000000E+000  0.194389E+000 -0.992291E+001 -0.101173E+002  0.380368E+000  0.205399E+000  0.619632E+000  0.334601E+000  0.149374E-006
  0.000000E+000  0.000000E+000  0.196393E+000 -0.987641E+001 -0.100728E+002  0.380922E+000  0.205698E+000  0.619078E+000  0.334302E+000  0.265300E-006
  0.000000E+000  0.000000E+000  0.198397E+000 -0.983049E+001 -0.100289E+002  0.381473E+000  0.205995E+000  0.618527E+000  0.334005E+000  0.741176E-007
  0.000000E+000  0.000000E+000  0.200401E+000 -0.978516E+001 -0.998556E+001  0.382020E+000  0.206291E+000  0.617980E+000  0.333709E+000  0.145017E-006
  0.000000E+000  0.000000E+000  0.202405E+000 -0.974038E+001 -0.994278E+001  0.382563E+000  0.206584E+000  0.617437E+000  0.333416E+000  0.231331E-006
  0.000000E+000  0.000000E+000  0.204409E+000 -0.969615E+001 -0.990056E+001  0.383103E+000  0.206876E+000  0.616897E+000  0.333124E+000  0.116052E-006
  0.000000E+000  0.000000E+000  0.206413E+000 -0.965245E+001 -0.985886E+001  0.383640E+000  0.207165E+000  0.616360E+000  0.332835E+000  0.235165E-006
  0.000000E+000  0.000000E+000  0.208417E+000 -0.960926E+001 -0.981768E+001  0.384173E+000  0.207453E+000  0.615827E+000  0.332547E+000  0.113075E-006
  0.000000E+000  0.000000E+000  0.210421E+000 -0.956659E+001 -0.977701E+001  0.384703E+000  0.207740E+000  0.615297E+000  0.332260E+000  0.711521E-007
  0.000000E+000  0.000000E+000  0.212425E+000 -0.952441E+001 -0.973683E+001  0.385230E+000  0.208024E+000  0.614770E+000  0.331976E+000  0.306920E-006
  0.000000E+000  0.000000E+000  0.214429E+000 -0.948270E+001 -0.969712E+001  0.385753E+000  0.208307E+000  0.614247E+000  0.331693E+000  0.148817E-006
  0.000000E+000  0.000000E+000  0.216433E+000 -0.944145E+001 -0.965789E+001  0.386274E+000  0.208588E+000  0.613726E+000  0.331412E+000  0.238917E-006
  0.000000E+000  0.000000E+000  0.218437E+000 -0.940066E+001 -0.961910E+001  0.386792E+000  0.208868E+000  0.613208E+000  0.331132E+000  0.110866E-006
  0.000000E+000  0.000000E+000  0.220441E+000 -0.936032E+001 -0.958076E+001  0.387307E+000  0.209146E+000  0.612693E+000  0.330854E+000  0.111937E-006
  0.000000E+000  0.000000E+000  0.222445E+000 -0.932041E+001 -0.954286E+001  0.387819E+000  0.209422E+000  0.612181E+000  0.330578E+000  0.319968E-006
  0.000000E+000  0.000000E+000  0.224449E+000 -0.928092E+001 -0.950537E+001  0.388329E+000  0.209698E+000  0.611671E+000  0.330302E+000  0.113409E-006
  0.000000E+000  0.000000E+000  0.226453E+000 -0.924184E+001 -0.946829E+001  0.388836E+000  0.209971E+000  0.611164E+000  0.330029E+000  0.247407E-006
  0.000000E+000  0.000000E+000  0.228457E+000 -0.920316E+001 -0.943162E+001  0.389340E+000  0.210244E+000  0.610660E+000  0.329756E+000  0.192789E-006
  0.000000E+000  0.000000E+000  0.230461E+000 -0.916487E+001 -0.939533E+001  0.389842E+000  0.210515E+000  0.610158E+000  0.329485E+000  0.735222E-007
  0.000000E+000  0.000000E+000  0.232465E+000 -0.912697E+001 -0.935943E+001  0.390342E+000  0.210785E+000  0.609658E+000  0.329215E+000  0.285363E-006
  0.000000E+000  0.000000E+000  0.234469E+000 -0.908944E+001 -0.932390E+001  0.390839E+000  0.211053E+000  0.609161E+000  0.328947E+000  0.804683E-007
  0.000000E+000  0.000000E+000  0.236473E+000 -0.905227E+001 -0.928874E+001  0.391334E+000  0.211320E+000  0.608666E+000  0.328680E+000  0.328351E-006
  0.000000E+000  0.000000E+000  0.238477E+000 -0.901546E+001 -0.925393E+001  0.391827E+000  0.211586E+000  0.608173E+000  0.328414E+000  0.111401E-006
  0.000000E+000  0.000000E+000  0.240481E+000 -0.897899E+001 -0.921947E+001  0.392317E+000  0.211851E+000  0.607683E+000  0.328149E+000  0.232485E-006
  0.000000E+000  0.000000E+000  0.242485E+000 -0.894286E+001 -0.918535E+001  0.392805E+000  0.212115E+000  0.607195E+000  0.327885E+000  0.390796E-006
  0.000000E+000  0.000000E+000  0.244489E+000 -0.890706E+001 -0.915155E+001  0.393292E+000  0.212378E+000  0.606708E+000  0.327622E+000  0.117622E-006
  0.000000E+000  0.000000E+000  0.246493E+000 -0.887158E+001 -0.911807E+001  0.393776E+000  0.212639E+000  0.606224E+000  0.327361E+000  0.335317E-006
  0.000000E+000  0.000000E+000  0.248497E+000 -0.883642E+001 -0.908491E+001  0.394259E+000  0.212900E+000  0.605741E+000  0.327100E+000  0.118376E-006
  0.000000E+000  0.000000E+000  0.250501E+000 -0.880156E+001 -0.905206E+001  0.394739E+000  0.213159E+000  0.605261E+000  0.326841E+000  0.163797E-006
  0.000000E+000  0.000000E+000  0.252505E+000 -0.876701E+001 -0.901952E+001  0.395218E+000  0.213418E+000  0.604782E+000  0.326582E+000  0.365072E-006
  0.000000E+000  0.000000E+000  0.254509E+000 -0.873275E+001 -0.898726E+001  0.395695E+000  0.213675E+000  0.604305E+000  0.326325E+000  0.166978E-006
  0.000000E+000  0.000000E+000  0.256513E+000 -0.869878E+001 -0.895529E+001  0.396170E+000  0.213932E+000  0.603830E+000  0.326068E+000  0.380745E-006
  0.000000E+000  0.000000E+000  0.258517E+000 -0.866508E+001 -0.892360E+001  0.396644E+000  0.214188E+000  0.603356E+000  0.325812E+000  0.124097E-006
  0.000000E+000  0.000000E+000  0.260521E+000 -0.863167E+001 -0.889219E+001  0.397116E+000  0.214443E+000  0.602884E+000  0.325557E+000  0.173188E-006
  0.000000E+000  0.000000E+000  0.262525E+000 -0.859852E+001 -0.886105E+001  0.397586E+000  0.214697E+000  0.602414E+000  0.325303E+000  0.320189E-006
  0.000000E+000  0.000000E+000  0.264529E+000 -0.856564E+001 -0.883017E+001  0.398055E+000  0.214950E+000  0.601945E+000  0.325050E+000  0.201452E-006
  0.000000E+000  0.000000E+000  0.266533E+000 -0.853302E+001 -0.879955E+001  0.398522E+000  0.215202E+000  0.601478E+000  0.324798E+000  0.352424E-006
  0.000000E+000  0.000000E+000  0.268537E+000 -0.850064E+001 -0.876918E+001  0.398988E+000  0.215454E+000  0.601012E+000  0.324546E+000  0.156376E-006
  0.000000E+000  0.000000E+000  0.270541E+000 -0.846851E+001 -0.873905E+001  0.399453E+000  0.215704E+000  0.600547E+000  0.324296E+000  0.225046E-006
  0.000000E+000  0.000000E+000  0.272545E+000 -0.843663E+001 -0.870917E+001  0.399916E+000  0.215955E+000  0.600084E+000  0.324045E+000  0.367923E-006
  0.000000E+000  0.000000E+000  0.274549E+000 -0.840498E+001 -0.867953E+001  0.400378E+000  0.216204E+000  0.599622E+000  0.323796E+000  0.227751E-006
  0.000000E+000  0.000000E+000  0.276553E+000 -0.837356E+001 -0.865011E+001  0.400838E+000  0.216453E+000  0.599162E+000  0.323547E+000  0.419713E-006
  0.000000E+000  0.000000E+000  0.278557E+000 -0.834236E+001 -0.862092E+001  0.401298E+000  0.216701E+000  0.598702E+000  0.323299E+000  0.222896E-006
  0.000000E+000  0.000000E+000  0.280561E+000 -0.831138E+001 -0.859195E+001  0.401756E+000  0.216948E+000  0.598244E+000  0.323052E+000  0.209508E-006
  0.000000E+000  0.000000E+000  0.282565E+000 -0.828063E+001 -0.856319E+001  0.402213E+000  0.217195E+000  0.597787E+000  0.322805E+000  0.369603E-006
  0.000000E+000  0.000000E+000  0.284569E+000 -0.825008E+001 -0.853465E+001  0.402669E+000  0.217441E+000  0.597331E+000  0.322559E+000  0.204448E-006
  0.000000E+000  0.000000E+000  0.286573E+000 -0.821975E+001 -0.850632E+001  0.403124E+000  0.217687E+000  0.596876E+000  0.322313E+000  0.374638E-006
  0.000000E+000  0.000000E+000  0.288577E+000 -0.818961E+001 -0.847819E+001  0.403578E+000  0.217932E+000  0.596422E+000  0.322068E+000  0.246534E-006
  0.000000E+000  0.000000E+000  0.290581E+000 -0.815968E+001 -0.845026E+001  0.404030E+000  0.218176E+000  0.595970E+000  0.321824E+000  0.166303E-006
  0.000000E+000  0.000000E+000  0.292585E+000 -0.812994E+001 -0.842253E+001  0.404482E+000  0.218420E+000  0.595518E+000  0.321580E+000  0.471219E-006
  0.000000E+000  0.000000E+000  0.294589E+000 -0.810040E+001 -0.839499E+001  0.404933E+000  0.218664E+000  0.595067E+000  0.321336E+000  0.161655E-006
  0.000000E+000  0.000000E+000  0.296593E+000 -0.807104E+001 -0.836763E+001  0.405383E+000  0.218907E+000  0.594617E+000  0.321093E+000  0.479633E-006
  0.000000E+000  0.000000E+000  0.298597E+000 -0.804187E+001 -0.834046E+001  0.405832E+000  0.219149E+000  0.594168E+000  0.320851E+000  0.247177E-006
  0.000000E+000  0.000000E+000  0.300601E+000 -0.801287E+001 -0.831348E+001  0.406281E+000  0.219391E+000  0.593719E+000  0.320609E+000  0.150654E-006
  0.000000E+000  0.000000E+000  0.302605E+000 -0.798406E+001 -0.828667E+001  0.406728E+000  0.219633E+000  0.593272E+000  0.320367E+000  0.405450E-006
  0.000000E+000  0.000000E+000  0.304609E+000 -0.795542E+001 -0.826003E+001  0.407175E+000  0.219874E+000  0.592825E+000  0.320126E+000  0.155565E-006
  0.000000E+000  0.000000E+000  0.306613E+000 -0.792696E+001 -0.823357E+001  0.407621E+000  0.220115E+000  0.592379E+000  0.319885E+000  0.417143E-006
  0.000000E+000  0.000000E+000  0.308617E+000 -0.789866E+001 -0.820728E+001  0.408066E+000  0.220356E+000  0.591934E+000  0.319644E+000  0.117219E-006
  0.000000E+000  0.000000E+000  0.310621E+000 -0.787053E+001 -0.818115E+001  0.408510E+000  0.220596E+000  0.591490E+000  0.319404E+000  0.252442E-006
  0.000000E+000  0.000000E+000  0.312625E+000 -0.784257E+001 -0.815519E+001  0.408954E+000  0.220835E+000  0.591046E+000  0.319165E+000  0.502293E-006
  0.000000E+000  0.000000E+000  0.314629E+000 -0.781476E+001 -0.812938E+001  0.409397E+000  0.221074E+000  0.590603E+000  0.318926E+000  0.227124E-006
  0.000000E+000  0.000000E+000  0.316633E+000 -0.778710E+001 -0.810374E+001  0.409840E+000  0.221313E+000  0.590160E+000  0.318687E+000  0.519414E-006
  0.000000E+000  0.000000E+000  0.318637E+000 -0.775960E+001 -0.807824E+001  0.410282E+000  0.221552E+000  0.589718E+000  0.318448E+000  0.177168E-006
  0.000000E+000  0.000000E+000  0.320641E+000 -0.773225E+001 -0.805289E+001  0.410723E+000  0.221791E+000  0.589277E+000  0.318209E+000  0.284637E-006
  0.000000E+000  0.000000E+000  0.322645E+000 -0.770505E+001 -0.802769E+001  0.411164E+000  0.222029E+000  0.588836E+000  0.317971E+000  0.425467E-006
  0.000000E+000  0.000000E+000  0.324649E+000 -0.767799E+001 -0.800264E+001  0.411604E+000  0.222266E+000  0.588396E+000  0.317734E+000  0.345871E-006
  0.000000E+000  0.000000E+000  0.326653E+000 -0.765108E+001 -0.797773E+001  0.412044E+000  0.222504E+000  0.587956E+000  0.317496E+000  0.667994E-006
  0.000000E+000  0.000000E+000  0.328657E+000 -0.762430E+001 -0.795295E+001  0.412484E+000  0.222741E+000  0.587516E+000  0.317259E+000  0.414598E-006
  0.000000E+000  0.000000E+000  0.330661E+000 -0.759765E+001 -0.792831E+001  0.412923E+000  0.222978E+000  0.587077E+000  0.317022E+000  0.397040E-006
  0.000000E+000  0.000000E+000  0.332665E+000 -0.757114E+001 -0.790381E+001  0.413362E+000  0.223215E+000  0.586638E+000  0.316785E+000  0.639271E-006
  0.000000E+000  0.000000E+000  0.334669E+000 -0.754476E+001 -0.787943E+001  0.413800E+000  0.223452E+000  0.586200E+000  0.316548E+000  0.513033E-006
  0.000000E+000  0.000000E+000  0.336673E+000 -0.751851E+001 -0.785519E+001  0.414238E+000  0.223689E+000  0.585762E+000  0.316311E+000  0.575276E-006
  0.000000E+000  0.000000E+000  0.338677E+000 -0.749239E+001 -0.783107E+001  0.414676E+000  0.223925E+000  0.585324E+000  0.316075E+000  0.505156E-006
  0.000000E+000  0.000000E+000  0.340681E+000 -0.746639E+001 -0.780707E+001  0.415114E+000  0.224161E+000  0.584886E+000  0.315839E+000  0.500319E-006
  0.000000E+000  0.000000E+000  0.342685E+000 -0.744051E+001 -0.778320E+001  0.415551E+000  0.224398E+000  0.584449E+000  0.315602E+000  0.661221E-006
  0.000000E+000  0.000000E+000  0.344689E+000 -0.741475E+001 -0.775944E+001  0.415988E+000  0.224634E+000  0.584012E+000  0.315366E+000  0.344784E-006
  0.000000E+000  0.000000E+000  0.346693E+000 -0.738912E+001 -0.773581E+001  0.416425E+000  0.224870E+000  0.583575E+000  0.315130E+000  0.542469E-006
  0.000000E+000  0.000000E+000  0.348697E+000 -0.736360E+001 -0.771230E+001  0.416862E+000  0.225105E+000  0.583138E+000  0.314895E+000  0.462487E-006
  0.000000E+000  0.000000E+000  0.350701E+000 -0.733820E+001 -0.768891E+001  0.417298E+000  0.225341E+000  0.582702E+000  0.314659E+000  0.405148E-006
  0.000000E+000  0.000000E+000  0.352705E+000 -0.731292E+001 -0.766563E+001  0.417734E+000  0.225576E+000  0.582266E+000  0.314424E+000  0.744384E-006
  0.000000E+000  0.000000E+000  0.354709E+000 -0.728775E+001 -0.764246E+001  0.418170E+000  0.225812E+000  0.581830E+000  0.314188E+000  0.572992E-006
  0.000000E+000  0.000000E+000  0.356713E+000 -0.726269E+001 -0.761941E+001  0.418606E+000  0.226047E+000  0.581394E+000  0.313953E+000  0.659559E-006
  0.000000E+000  0.000000E+000  0.358717E+000 -0.723774E+001 -0.759646E+001  0.419041E+000  0.226282E+000  0.580959E+000  0.313718E+000  0.693128E-006
  0.000000E+000  0.000000E+000  0.360721E+000 -0.721289E+001 -0.757362E+001  0.419477E+000  0.226518E+000  0.580523E+000  0.313482E+000  0.803538E-006
  0.000000E+000  0.000000E+000  0.362725E+000 -0.718815E+001 -0.755088E+001  0.419913E+000  0.226753E+000  0.580087E+000  0.313247E+000  0.978779E-006
  0.000000E+000  0.000000E+000  0.364729E+000 -0.716351E+001 -0.752824E+001  0.420348E+000  0.226988E+000  0.579652E+000  0.313012E+000  0.614579E-006
  0.000000E+000  0.000000E+000  0.366733E+000 -0.713897E+001 -0.750570E+001  0.420784E+000  0.227223E+000  0.579216E+000  0.312777E+000  0.907696E-006
  0.000000E+000  0.000000E+000  0.368737E+000 -0.711453E+001 -0.748327E+001  0.421219E+000  0.227458E+000  0.578781E+000  0.312542E+000  0.802992E-006
  0.000000E+000  0.000000E+000  0.370741E+000 -0.709019E+001 -0.746093E+001  0.421655E+000  0.227694E+000  0.578345E+000  0.312306E+000  0.642471E-006
  0.000000E+000  0.000000E+000  0.372745E+000 -0.706595E+001 -0.743869E+001  0.422090E+000  0.227929E+000  0.577910E+000  0.312071E+000  0.904215E-006
  0.000000E+000  0.000000E+000  0.374749E+000 -0.704180E+001 -0.741655E+001  0.422526E+000  0.228164E+000  0.577474E+000  0.311836E+000  0.557879E-006
  0.000000E+000  0.000000E+000  0.376754E+000 -0.701776E+001 -0.739451E+001  0.422961E+000  0.228399E+000  0.577039E+000  0.311601E+000  0.873036E-006
  0.000000E+000  0.000000E+000  0.378758E+000 -0.699381E+001 -0.737257E+001  0.423397E+000  0.228634E+000  0.576603E+000  0.311366E+000  0.526901E-006
  0.000000E+000  0.000000E+000  0.380762E+000 -0.696996E+001 -0.735072E+001  0.423832E+000  0.228869E+000  0.576168E+000  0.311131E+000  0.527262E-006
  0.000000E+000  0.000000E+000  0.382766E+000 -0.694621E+001 -0.732897E+001  0.424267E+000  0.229104E+000  0.575733E+000  0.310896E+000  0.965088E-006
  0.000000E+000  0.000000E+000  0.384770E+000 -0.692255E+001 -0.730732E+001  0.424703E+000  0.229339E+000  0.575297E+000  0.310661E+000  0.724627E-006
  0.000000E+000  0.000000E+000  0.386774E+000 -0.689898E+001 -0.728575E+001  0.425138E+000  0.229574E+000  0.574862E+000  0.310426E+000  0.907636E-006
  0.000000E+000  0.000000E+000  0.388778E+000 -0.687550E+001 -0.726428E+001  0.425573E+000  0.229810E+000  0.574427E+000  0.310190E+000  0.636542E-006
  0.000000E+000  0.000000E+000  0.390782E+000 -0.685212E+001 -0.724290E+001  0.426009E+000  0.230045E+000  0.573991E+000  0.309955E+000  0.732303E-006
  0.000000E+000  0.000000E+000  0.392786E+000 -0.682882E+001 -0.722161E+001  0.426444E+000  0.230280E+000  0.573556E+000  0.309720E+000  0.108114E-005