title = "dataset transp-updrld"
variables = "x", "y", "z", "h_w", "p_w", "s_w", "theta_a", "s_a", "theta_g", "q_root"
zone t = "Flow variables, solution time =  7.000E+00 days        " i =  500, j =    1, k =    1,  f=point
  0.000000E+000  0.000000E+000  0.000000E+000 -0.100000E+003 -0.100000E+003  0.214462E+000  0.115809E+000  0.785538E+000  0.424191E+000  0.000000E+000
  0.000000E+000  0.000000E+000  0.200401E-002 -0.501671E+002 -0.501691E+002  0.244804E+000  0.132194E+000  0.755196E+000  0.407806E+000  0.000000E+000
  0.000000E+000  0.000000E+000  0.400802E-002 -0.351959E+002 -0.351999E+002  0.265546E+000  0.143395E+000  0.734454E+000  0.396605E+000  0.000000E+000
  0.000000E+000  0.000000E+000  0.601202E-002 -0.281632E+002 -0.281692E+002  0.280826E+000  0.151646E+000  0.719174E+000  0.388354E+000  0.000000E+000
  0.000000E+000  0.000000E+000  0.801603E-002 -0.240454E+002 -0.240534E+002  0.292847E+000  0.158138E+000  0.707153E+000  0.381862E+000  0.000000E+000
  0.000000E+000  0.000000E+000  0.100200E-001 -0.213090E+002 -0.213191E+002  0.302755E+000  0.163488E+000  0.697245E+000  0.376512E+000  0.000000E+000
  0.000000E+000  0.000000E+000  0.120240E-001 -0.193380E+002 -0.193501E+002  0.311195E+000  0.168045E+000  0.688805E+000  0.371955E+000  0.000000E+000
  0.000000E+000  0.000000E+000  0.140281E-001 -0.178376E+002 -0.178516E+002  0.318558E+000  0.172021E+000  0.681442E+000  0.367979E+000  0.000000E+000
  0.000000E+000  0.000000E+000  0.160321E-001 -0.166488E+002 -0.166648E+002  0.325100E+000  0.175554E+000  0.674900E+000  0.364446E+000  0.000000E+000
  0.000000E+000  0.000000E+000  0.180361E-001 -0.156780E+002 -0.156961E+002  0.330994E+000  0.178737E+000  0.669006E+000  0.361263E+000  0.000000E+000
  0.000000E+000  0.000000E+000  0.200401E-001 -0.148665E+002 -0.148865E+002  0.336365E+000  0.181637E+000  0.663635E+000  0.358363E+000  0.000000E+000
  0.000000E+000  0.000000E+000  0.220441E-001 -0.141752E+002 -0.141972E+002  0.341302E+000  0.184303E+000  0.658698E+000  0.355697E+000  0.000000E+000
  0.000000E+000  0.000000E+000  0.240481E-001 -0.135772E+002 -0.136013E+002  0.345875E+000  0.186773E+000  0.654125E+000  0.353227E+000  0.000000E+000
  0.000000E+000  0.000000E+000  0.260521E-001 -0.130534E+002 -0.130795E+002  0.350138E+000  0.189074E+000  0.649862E+000  0.350926E+000  0.000000E+000
  0.000000E+000  0.000000E+000  0.280561E-001 -0.125896E+002 -0.126177E+002  0.354132E+000  0.191231E+000  0.645868E+000  0.348769E+000  0.000000E+000
  0.000000E+000  0.000000E+000  0.300601E-001 -0.121751E+002 -0.122052E+002  0.357893E+000  0.193262E+000  0.642107E+000  0.346738E+000  0.000000E+000
  0.000000E+000  0.000000E+000  0.320641E-001 -0.118018E+002 -0.118339E+002  0.361447E+000  0.195181E+000  0.638553E+000  0.344819E+000  0.000000E+000
  0.000000E+000  0.000000E+000  0.340681E-001 -0.114632E+002 -0.114973E+002  0.364817E+000  0.197001E+000  0.635183E+000  0.342999E+000  0.000000E+000
  0.000000E+000  0.000000E+000  0.360721E-001 -0.111543E+002 -0.111904E+002  0.368024E+000  0.198733E+000  0.631976E+000  0.341267E+000  0.000000E+000
  0.000000E+000  0.000000E+000  0.380762E-001 -0.108709E+002 -0.109090E+002  0.371083E+000  0.200385E+000  0.628917E+000  0.339615E+000  0.000000E+000
  0.000000E+000  0.000000E+000  0.400802E-001 -0.106097E+002 -0.106498E+002  0.374008E+000  0.201964E+000  0.625992E+000  0.338036E+000  0.000000E+000
  0.000000E+000  0.000000E+000  0.420842E-001 -0.103679E+002 -0.104100E+002  0.376811E+000  0.203478E+000  0.623189E+000  0.336522E+000  0.000000E+000
  0.000000E+000  0.000000E+000  0.440882E-001 -0.101432E+002 -0.101873E+002  0.379503E+000  0.204932E+000  0.620497E+000  0.335068E+000  0.000000E+000
  0.000000E+000  0.000000E+000  0.460922E-001 -0.993369E+001 -0.997978E+001  0.382093E+000  0.206330E+000  0.617907E+000  0.333670E+000  0.000000E+000
  0.000000E+000  0.000000E+000  0.480962E-001 -0.973767E+001 -0.978576E+001  0.384588E+000  0.207678E+000  0.615412E+000  0.332322E+000  0.000000E+000
  0.000000E+000  0.000000E+000  0.501002E-001 -0.955375E+001 -0.960385E+001  0.386997E+000  0.208978E+000  0.613003E+000  0.331022E+000  0.000000E+000
  0.000000E+000  0.000000E+000  0.521042E-001 -0.938073E+001 -0.943283E+001  0.389324E+000  0.210235E+000  0.610676E+000  0.329765E+000  0.000000E+000
  0.000000E+000  0.000000E+000  0.541082E-001 -0.921755E+001 -0.927166E+001  0.391575E+000  0.211451E+000  0.608425E+000  0.328549E+000  0.000000E+000
  0.000000E+000  0.000000E+000  0.561122E-001 -0.906331E+001 -0.911943E+001  0.393757E+000  0.212629E+000  0.606243E+000  0.327371E+000  0.000000E+000
  0.000000E+000  0.000000E+000  0.581162E-001 -0.891722E+001 -0.897533E+001  0.395872E+000  0.213771E+000  0.604128E+000  0.326229E+000  0.000000E+000
  0.000000E+000  0.000000E+000  0.601202E-001 -0.877856E+001 -0.883868E+001  0.397926E+000  0.214880E+000  0.602074E+000  0.325120E+000  0.000000E+000
  0.000000E+000  0.000000E+000  0.621242E-001 -0.864673E+001 -0.870885E+001  0.399921E+000  0.215957E+000  0.600079E+000  0.324043E+000  0.000000E+000
  0.000000E+000  0.000000E+000  0.641283E-001 -0.852116E+001 -0.858529E+001  0.401861E+000  0.217005E+000  0.598139E+000  0.322995E+000  0.000000E+000
  0.000000E+000  0.000000E+000  0.661323E-001 -0.840138E+001 -0.846751E+001  0.403750E+000  0.218025E+000  0.596250E+000  0.321975E+000  0.000000E+000
  0.000000E+000  0.000000E+000  0.681363E-001 -0.828695E+001 -0.835509E+001  0.405590E+000  0.219019E+000  0.594410E+000  0.320981E+000  0.000000E+000
  0.000000E+000  0.000000E+000  0.701403E-001 -0.817747E+001 -0.824761E+001  0.407384E+000  0.219987E+000  0.592616E+000  0.320013E+000  0.000000E+000
  0.000000E+000  0.000000E+000  0.721443E-001 -0.807259E+001 -0.814474E+001  0.409133E+000  0.220932E+000  0.590867E+000  0.319068E+000  0.000000E+000
  0.000000E+000  0.000000E+000  0.741483E-001 -0.797200E+001 -0.804615E+001  0.410841E+000  0.221854E+000  0.589159E+000  0.318146E+000  0.000000E+000
  0.000000E+000  0.000000E+000  0.761523E-001 -0.787540E+001 -0.795156E+001  0.412509E+000  0.222755E+000  0.587491E+000  0.317245E+000  0.000000E+000
  0.000000E+000  0.000000E+000  0.781563E-001 -0.778254E+001 -0.786069E+001  0.414139E+000  0.223635E+000  0.585861E+000  0.316365E+000  0.000000E+000
  0.000000E+000  0.000000E+000  0.801603E-001 -0.769317E+001 -0.777333E+001  0.415733E+000  0.224496E+000  0.584267E+000  0.315504E+000  0.000000E+000
  0.000000E+000  0.000000E+000  0.821643E-001 -0.760708E+001 -0.768924E+001  0.417292E+000  0.225337E+000  0.582708E+000  0.314663E+000  0.000000E+000
  0.000000E+000  0.000000E+000  0.841683E-001 -0.752406E+001 -0.760823E+001  0.418818E+000  0.226162E+000  0.581182E+000  0.313838E+000  0.000000E+000
  0.000000E+000  0.000000E+000  0.861723E-001 -0.744395E+001 -0.753012E+001  0.420312E+000  0.226968E+000  0.579688E+000  0.313032E+000  0.000000E+000
  0.000000E+000  0.000000E+000  0.881764E-001 -0.736656E+001 -0.745474E+001  0.421776E+000  0.227759E+000  0.578224E+000  0.312241E+000  0.000000E+000
  0.000000E+000  0.000000E+000  0.901804E-001 -0.729175E+001 -0.738193E+001  0.423210E+000  0.228534E+000  0.576790E+000  0.311466E+000  0.000000E+000
  0.000000E+000  0.000000E+000  0.921844E-001 -0.721937E+001 -0.731156E+001  0.424617E+000  0.229293E+000  0.575383E+000  0.310707E+000  0.000000E+000
  0.000000E+000  0.000000E+000  0.941884E-001 -0.714929E+001 -0.724348E+001  0.425997E+000  0.230038E+000  0.574003E+000  0.309962E+000  0.000000E+000
  0.000000E+000  0.000000E+000  0.961924E-001 -0.708140E+001 -0.717759E+001  0.427351E+000  0.230769E+000  0.572649E+000  0.309231E+000  0.000000E+000
  0.000000E+000  0.000000E+000  0.981964E-001 -0.701557E+001 -0.711377E+001  0.428679E+000  0.231487E+000  0.571321E+000  0.308513E+000  0.000000E+000
  0.000000E+000  0.000000E+000  0.100200E+000 -0.695170E+001 -0.705190E+001  0.429984E+000  0.232191E+000  0.570016E+000  0.307809E+000  0.000000E+000
  0.000000E+000  0.000000E+000  0.102204E+000 -0.688970E+001 -0.699191E+001  0.431266E+000  0.232883E+000  0.568734E+000  0.307117E+000  0.000000E+000
  0.000000E+000  0.000000E+000  0.104208E+000 -0.682948E+001 -0.693368E+001  0.432525E+000  0.233563E+000  0.567475E+000  0.306437E+000  0.000000E+000
  0.000000E+000  0.000000E+000  0.106212E+000 -0.677094E+001 -0.687715E+001  0.433762E+000  0.234231E+000  0.566238E+000  0.305769E+000  0.000000E+000
  0.000000E+000  0.000000E+000  0.108216E+000 -0.671401E+001 -0.682223E+001  0.434978E+000  0.234888E+000  0.565022E+000  0.305112E+000  0.000000E+000
  0.000000E+000  0.000000E+000  0.110220E+000 -0.665863E+001 -0.676885E+001  0.436175E+000  0.235534E+000  0.563825E+000  0.304466E+000  0.000000E+000
  0.000000E+000  0.000000E+000  0.112224E+000 -0.660471E+001 -0.671693E+001  0.437351E+000  0.236170E+000  0.562649E+000  0.303830E+000  0.000000E+000
  0.000000E+000  0.000000E+000  0.114228E+000 -0.655219E+001 -0.666642E+001  0.438508E+000  0.236795E+000  0.561492E+000  0.303205E+000  0.000000E+000
  0.000000E+000  0.000000E+000  0.116232E+000 -0.650102E+001 -0.661725E+001  0.439647E+000  0.237410E+000  0.560353E+000  0.302590E+000  0.000000E+000
  0.000000E+000  0.000000E+000  0.118236E+000 -0.645113E+001 -0.656937E+001  0.440769E+000  0.238015E+000  0.559231E+000  0.301985E+000  0.000000E+000
  0.000000E+000  0.000000E+000  0.120240E+000 -0.640247E+001 -0.652271E+001  0.441872E+000  0.238611E+000  0.558128E+000  0.301389E+000  0.000000E+000
  0.000000E+000  0.000000E+000  0.122244E+000 -0.635499E+001 -0.647724E+001  0.442959E+000  0.239198E+000  0.557041E+000  0.300802E+000  0.000000E+000
  0.000000E+000  0.000000E+000  0.124248E+000 -0.630865E+001 -0.643290E+001  0.444030E+000  0.239776E+000  0.555970E+000  0.300224E+000  0.000000E+000
  0.000000E+000  0.000000E+000  0.126253E+000 -0.626339E+001 -0.638964E+001  0.445085E+000  0.240346E+000  0.554915E+000  0.299654E+000  0.000000E+000
  0.000000E+000  0.000000E+000  0.128257E+000 -0.621918E+001 -0.634744E+001  0.446124E+000  0.240907E+000  0.553876E+000  0.299093E+000  0.000000E+000
  0.000000E+000  0.000000E+000  0.130261E+000 -0.617597E+001 -0.630623E+001  0.447148E+000  0.241460E+000  0.552852E+000  0.298540E+000  0.000000E+000
  0.000000E+000  0.000000E+000  0.132265E+000 -0.613373E+001 -0.626599E+001  0.448158E+000  0.242005E+000  0.551842E+000  0.297995E+000  0.000000E+000
  0.000000E+000  0.000000E+000  0.134269E+000 -0.609242E+001 -0.622669E+001  0.449153E+000  0.242543E+000  0.550847E+000  0.297457E+000  0.000000E+000
  0.000000E+000  0.000000E+000  0.136273E+000 -0.605200E+001 -0.618827E+001  0.450135E+000  0.243073E+000  0.549865E+000  0.296927E+000  0.000000E+000
  0.000000E+000  0.000000E+000  0.138277E+000 -0.601245E+001 -0.615073E+001  0.451103E+000  0.243595E+000  0.548897E+000  0.296405E+000  0.000000E+000
  0.000000E+000  0.000000E+000  0.140281E+000 -0.597373E+001 -0.611401E+001  0.452057E+000  0.244111E+000  0.547943E+000  0.295889E+000  0.000000E+000
  0.000000E+000  0.000000E+000  0.142285E+000 -0.593581E+001 -0.607810E+001  0.452999E+000  0.244620E+000  0.547001E+000  0.295380E+000  0.000000E+000
  0.000000E+000  0.000000E+000  0.144289E+000 -0.589867E+001 -0.604296E+001  0.453929E+000  0.245121E+000  0.546071E+000  0.294879E+000  0.000000E+000
  0.000000E+000  0.000000E+000  0.146293E+000 -0.586228E+001 -0.600857E+001  0.454846E+000  0.245617E+000  0.545154E+000  0.294383E+000  0.000000E+000
  0.000000E+000  0.000000E+000  0.148297E+000 -0.582661E+001 -0.597491E+001  0.455751E+000  0.246105E+000  0.544249E+000  0.293895E+000  0.000000E+000
  0.000000E+000  0.000000E+000  0.150301E+000 -0.579164E+001 -0.594194E+001  0.456644E+000  0.246588E+000  0.543356E+000  0.293412E+000  0.000000E+000
  0.000000E+000  0.000000E+000  0.152305E+000 -0.575735E+001 -0.590966E+001  0.457526E+000  0.247064E+000  0.542474E+000  0.292936E+000  0.000000E+000
  0.000000E+000  0.000000E+000  0.154309E+000 -0.572371E+001 -0.587802E+001  0.458397E+000  0.247535E+000  0.541603E+000  0.292465E+000  0.000000E+000
  0.000000E+000  0.000000E+000  0.156313E+000 -0.569071E+001 -0.584702E+001  0.459257E+000  0.247999E+000  0.540743E+000  0.292001E+000  0.000000E+000
  0.000000E+000  0.000000E+000  0.158317E+000 -0.565832E+001 -0.581664E+001  0.460107E+000  0.248458E+000  0.539893E+000  0.291542E+000  0.000000E+000
  0.000000E+000  0.000000E+000  0.160321E+000 -0.562653E+001 -0.578685E+001  0.460946E+000  0.248911E+000  0.539054E+000  0.291089E+000  0.000000E+000
  0.000000E+000  0.000000E+000  0.162325E+000 -0.559531E+001 -0.575763E+001  0.461774E+000  0.249358E+000  0.538226E+000  0.290642E+000  0.000000E+000
  0.000000E+000  0.000000E+000  0.164329E+000 -0.556465E+001 -0.572898E+001  0.462593E+000  0.249800E+000  0.537407E+000  0.290200E+000  0.000000E+000
  0.000000E+000  0.000000E+000  0.166333E+000 -0.553453E+001 -0.570086E+001  0.463402E+000  0.250237E+000  0.536598E+000  0.289763E+000  0.000000E+000
  0.000000E+000  0.000000E+000  0.168337E+000 -0.550494E+001 -0.567327E+001  0.464201E+000  0.250669E+000  0.535799E+000  0.289331E+000  0.000000E+000
  0.000000E+000  0.000000E+000  0.170341E+000 -0.547586E+001 -0.564620E+001  0.464991E+000  0.251095E+000  0.535009E+000  0.288905E+000  0.000000E+000
  0.000000E+000  0.000000E+000  0.172345E+000 -0.544727E+001 -0.561962E+001  0.465772E+000  0.251517E+000  0.534228E+000  0.288483E+000  0.000000E+000
  0.000000E+000  0.000000E+000  0.174349E+000 -0.541917E+001 -0.559352E+001  0.466544E+000  0.251934E+000  0.533456E+000  0.288066E+000  0.000000E+000
  0.000000E+000  0.000000E+000  0.176353E+000 -0.539153E+001 -0.556789E+001  0.467307E+000  0.252346E+000  0.532693E+000  0.287654E+000  0.000000E+000
  0.000000E+000  0.000000E+000  0.178357E+000 -0.536435E+001 -0.554271E+001  0.468061E+000  0.252753E+000  0.531939E+000  0.287247E+000  0.000000E+000
  0.000000E+000  0.000000E+000  0.180361E+000 -0.533762E+001 -0.551798E+001  0.468807E+000  0.253156E+000  0.531193E+000  0.286844E+000  0.000000E+000
  0.000000E+000  0.000000E+000  0.182365E+000 -0.531131E+001 -0.549368E+001  0.469544E+000  0.253554E+000  0.530456E+000  0.286446E+000  0.000000E+000
  0.000000E+000  0.000000E+000  0.184369E+000 -0.528542E+001 -0.546979E+001  0.470273E+000  0.253948E+000  0.529727E+000  0.286052E+000  0.000000E+000
  0.000000E+000  0.000000E+000  0.186373E+000 -0.525994E+001 -0.544632E+001  0.470995E+000  0.254337E+000  0.529005E+000  0.285663E+000  0.000000E+000
  0.000000E+000  0.000000E+000  0.188377E+000 -0.523486E+001 -0.542324E+001  0.471708E+000  0.254722E+000  0.528292E+000  0.285278E+000  0.000000E+000
  0.000000E+000  0.000000E+000  0.190381E+000 -0.521017E+001 -0.540055E+001  0.472413E+000  0.255103E+000  0.527587E+000  0.284897E+000  0.000000E+000
  0.000000E+000  0.000000E+000  0.192385E+000 -0.518585E+001 -0.537823E+001  0.473111E+000  0.255480E+000  0.526889E+000  0.284520E+000  0.000000E+000
  0.000000E+000  0.000000E+000  0.194389E+000 -0.516190E+001 -0.535629E+001  0.473802E+000  0.255853E+000  0.526198E+000  0.284147E+000  0.000000E+000
  0.000000E+000  0.000000E+000  0.196393E+000 -0.513831E+001 -0.533470E+001  0.474485E+000  0.256222E+000  0.525515E+000  0.283778E+000  0.000000E+000
  0.000000E+000  0.000000E+000  0.198397E+000 -0.511506E+001 -0.531346E+001  0.475161E+000  0.256587E+000  0.524839E+000  0.283413E+000  0.000000E+000
  0.000000E+000  0.000000E+000  0.200401E+000 -0.509216E+001 -0.529256E+001  0.475830E+000  0.256948E+000  0.524170E+000  0.283052E+000  0.000000E+000
  0.000000E+000  0.000000E+000  0.202405E+000 -0.506959E+001 -0.527199E+001  0.476491E+000  0.257305E+000  0.523509E+000  0.282695E+000  0.000000E+000
  0.000000E+000  0.000000E+000  0.204409E+000 -0.504734E+001 -0.525175E+001  0.477146E+000  0.257659E+000  0.522854E+000  0.282341E+000  0.000000E+000
  0.000000E+000  0.000000E+000  0.206413E+000 -0.502541E+001 -0.523182E+001  0.477795E+000  0.258009E+000  0.522205E+000  0.281991E+000  0.000000E+000
  0.000000E+000  0.000000E+000  0.208417E+000 -0.500379E+001 -0.521220E+001  0.478436E+000  0.258356E+000  0.521564E+000  0.281644E+000  0.000000E+000
  0.000000E+000  0.000000E+000  0.210421E+000 -0.498247E+001 -0.519289E+001  0.479071E+000  0.258699E+000  0.520929E+000  0.281301E+000  0.000000E+000
  0.000000E+000  0.000000E+000  0.212425E+000 -0.496144E+001 -0.517387E+001  0.479700E+000  0.259038E+000  0.520300E+000  0.280962E+000  0.000000E+000
  0.000000E+000  0.000000E+000  0.214429E+000 -0.494070E+001 -0.515513E+001  0.480322E+000  0.259374E+000  0.519678E+000  0.280626E+000  0.000000E+000
  0.000000E+000  0.000000E+000  0.216433E+000 -0.492025E+001 -0.513668E+001  0.480938E+000  0.259707E+000  0.519062E+000  0.280293E+000  0.000000E+000
  0.000000E+000  0.000000E+000  0.218437E+000 -0.490007E+001 -0.511850E+001  0.481548E+000  0.260036E+000  0.518452E+000  0.279964E+000  0.000000E+000
  0.000000E+000  0.000000E+000  0.220441E+000 -0.488015E+001 -0.510060E+001  0.482152E+000  0.260362E+000  0.517848E+000  0.279638E+000  0.000000E+000
  0.000000E+000  0.000000E+000  0.222445E+000 -0.486051E+001 -0.508295E+001  0.482750E+000  0.260685E+000  0.517250E+000  0.279315E+000  0.000000E+000
  0.000000E+000  0.000000E+000  0.224449E+000 -0.484111E+001 -0.506556E+001  0.483342E+000  0.261005E+000  0.516658E+000  0.278995E+000  0.000000E+000
  0.000000E+000  0.000000E+000  0.226453E+000 -0.482197E+001 -0.504843E+001  0.483929E+000  0.261321E+000  0.516071E+000  0.278679E+000  0.000000E+000
  0.000000E+000  0.000000E+000  0.228457E+000 -0.480308E+001 -0.503154E+001  0.484509E+000  0.261635E+000  0.515491E+000  0.278365E+000  0.000000E+000
  0.000000E+000  0.000000E+000  0.230461E+000 -0.478443E+001 -0.501489E+001  0.485084E+000  0.261946E+000  0.514916E+000  0.278054E+000  0.000000E+000
  0.000000E+000  0.000000E+000  0.232465E+000 -0.476601E+001 -0.499847E+001  0.485654E+000  0.262253E+000  0.514346E+000  0.277747E+000  0.000000E+000
  0.000000E+000  0.000000E+000  0.234469E+000 -0.474782E+001 -0.498229E+001  0.486218E+000  0.262558E+000  0.513782E+000  0.277442E+000  0.000000E+000
  0.000000E+000  0.000000E+000  0.236473E+000 -0.472986E+001 -0.496633E+001  0.486777E+000  0.262859E+000  0.513223E+000  0.277141E+000  0.000000E+000
  0.000000E+000  0.000000E+000  0.238477E+000 -0.471212E+001 -0.495060E+001  0.487330E+000  0.263158E+000  0.512670E+000  0.276842E+000  0.000000E+000
  0.000000E+000  0.000000E+000  0.240481E+000 -0.469460E+001 -0.493508E+001  0.487878E+000  0.263454E+000  0.512122E+000  0.276546E+000  0.000000E+000
  0.000000E+000  0.000000E+000  0.242485E+000 -0.467729E+001 -0.491977E+001  0.488421E+000  0.263748E+000  0.511579E+000  0.276252E+000  0.000000E+000
  0.000000E+000  0.000000E+000  0.244489E+000 -0.466019E+001 -0.490468E+001  0.488959E+000  0.264038E+000  0.511041E+000  0.275962E+000  0.000000E+000
  0.000000E+000  0.000000E+000  0.246493E+000 -0.464329E+001 -0.488978E+001  0.489492E+000  0.264326E+000  0.510508E+000  0.275674E+000  0.000000E+000
  0.000000E+000  0.000000E+000  0.248497E+000 -0.462659E+001 -0.487509E+001  0.490021E+000  0.264611E+000  0.509979E+000  0.275389E+000  0.000000E+000
  0.000000E+000  0.000000E+000  0.250501E+000 -0.461009E+001 -0.486060E+001  0.490544E+000  0.264894E+000  0.509456E+000  0.275106E+000  0.000000E+000
  0.000000E+000  0.000000E+000  0.252505E+000 -0.459379E+001 -0.484629E+001  0.491062E+000  0.265174E+000  0.508938E+000  0.274826E+000  0.000000E+000
  0.000000E+000  0.000000E+000  0.254509E+000 -0.457767E+001 -0.483218E+001  0.491576E+000  0.265451E+000  0.508424E+000  0.274549E+000  0.000000E+000
  0.000000E+000  0.000000E+000  0.256513E+000 -0.456173E+001 -0.481825E+001  0.492085E+000  0.265726E+000  0.507915E+000  0.274274E+000  0.000000E+000
  0.000000E+000  0.000000E+000  0.258517E+000 -0.454598E+001 -0.480450E+001  0.492589E+000  0.265998E+000  0.507411E+000  0.274002E+000  0.000000E+000
  0.000000E+000  0.000000E+000  0.260521E+000 -0.453041E+001 -0.479093E+001  0.493089E+000  0.266268E+000  0.506911E+000  0.273732E+000  0.000000E+000
  0.000000E+000  0.000000E+000  0.262525E+000 -0.451501E+001 -0.477753E+001  0.493584E+000  0.266535E+000  0.506416E+000  0.273465E+000  0.000000E+000
  0.000000E+000  0.000000E+000  0.264529E+000 -0.449978E+001 -0.476431E+001  0.494075E+000  0.266800E+000  0.505925E+000  0.273200E+000  0.000000E+000
  0.000000E+000  0.000000E+000  0.266533E+000 -0.448472E+001 -0.475126E+001  0.494561E+000  0.267063E+000  0.505439E+000  0.272937E+000  0.000000E+000
  0.000000E+000  0.000000E+000  0.268537E+000 -0.446983E+001 -0.473837E+001  0.495043E+000  0.267323E+000  0.504957E+000  0.272677E+000  0.000000E+000
  0.000000E+000  0.000000E+000  0.270541E+000 -0.445510E+001 -0.472564E+001  0.495521E+000  0.267581E+000  0.504479E+000  0.272419E+000  0.000000E+000
  0.000000E+000  0.000000E+000  0.272545E+000 -0.444053E+001 -0.471308E+001  0.495994E+000  0.267837E+000  0.504006E+000  0.272163E+000  0.000000E+000
  0.000000E+000  0.000000E+000  0.274549E+000 -0.442612E+001 -0.470067E+001  0.496464E+000  0.268090E+000  0.503536E+000  0.271910E+000  0.000000E+000
  0.000000E+000  0.000000E+000  0.276553E+000 -0.441186E+001 -0.468841E+001  0.496929E+000  0.268341E+000  0.503071E+000  0.271659E+000  0.000000E+000
  0.000000E+000  0.000000E+000  0.278557E+000 -0.439775E+001 -0.467631E+001  0.497390E+000  0.268590E+000  0.502610E+000  0.271410E+000  0.000000E+000
  0.000000E+000  0.000000E+000  0.280561E+000 -0.438379E+001 -0.466435E+001  0.497847E+000  0.268837E+000  0.502153E+000  0.271163E+000  0.000000E+000
  0.000000E+000  0.000000E+000  0.282565E+000 -0.436998E+001 -0.465255E+001  0.498300E+000  0.269082E+000  0.501700E+000  0.270918E+000  0.000000E+000
  0.000000E+000  0.000000E+000  0.284569E+000 -0.435631E+001 -0.464088E+001  0.498749E+000  0.269324E+000  0.501251E+000  0.270676E+000  0.000000E+000
  0.000000E+000  0.000000E+000  0.286573E+000 -0.434279E+001 -0.462936E+001  0.499194E+000  0.269565E+000  0.500806E+000  0.270435E+000  0.000000E+000
  0.000000E+000  0.000000E+000  0.288577E+000 -0.432940E+001 -0.461798E+001  0.499635E+000  0.269803E+000  0.500365E+000  0.270197E+000  0.000000E+000
  0.000000E+000  0.000000E+000  0.290581E+000 -0.431615E+001 -0.460673E+001  0.500073E+000  0.270039E+000  0.499927E+000  0.269961E+000  0.000000E+000
  0.000000E+000  0.000000E+000  0.292585E+000 -0.430303E+001 -0.459562E+001  0.500506E+000  0.270273E+000  0.499494E+000  0.269727E+000  0.000000E+000
  0.000000E+000  0.000000E+000  0.294589E+000 -0.429005E+001 -0.458464E+001  0.500936E+000  0.270506E+000  0.499064E+000  0.269494E+000  0.000000E+000
  0.000000E+000  0.000000E+000  0.296593E+000 -0.427719E+001 -0.457379E+001  0.501362E+000  0.270736E+000  0.498638E+000  0.269264E+000  0.000000E+000
  0.000000E+000  0.000000E+000  0.298597E+000 -0.426447E+001 -0.456306E+001  0.501785E+000  0.270964E+000  0.498215E+000  0.269036E+000  0.000000E+000
  0.000000E+000  0.000000E+000  0.300601E+000 -0.425187E+001 -0.455247E+001  0.502204E+000  0.271190E+000  0.497796E+000  0.268810E+000  0.000000E+000
  0.000000E+000  0.000000E+000  0.302605E+000 -0.423939E+001 -0.454200E+001  0.502619E+000  0.271414E+000  0.497381E+000  0.268586E+000  0.000000E+000
  0.000000E+000  0.000000E+000  0.304609E+000 -0.422704E+001 -0.453165E+001  0.503031E+000  0.271637E+000  0.496969E+000  0.268363E+000  0.000000E+000
  0.000000E+000  0.000000E+000  0.306613E+000 -0.421480E+001 -0.452142E+001  0.503439E+000  0.271857E+000  0.496561E+000  0.268143E+000  0.000000E+000
  0.000000E+000  0.000000E+000  0.308617E+000 -0.420269E+001 -0.451131E+001  0.503844E+000  0.272076E+000  0.496156E+000  0.267924E+000  0.000000E+000
  0.000000E+000  0.000000E+000  0.310621E+000 -0.419069E+001 -0.450131E+001  0.504246E+000  0.272293E+000  0.495754E+000  0.267707E+000  0.000000E+000
  0.000000E+000  0.000000E+000  0.312625E+000 -0.417881E+001 -0.449143E+001  0.504644E+000  0.272508E+000  0.495356E+000  0.267492E+000  0.000000E+000
  0.000000E+000  0.000000E+000  0.314629E+000 -0.416704E+001 -0.448166E+001  0.505038E+000  0.272721E+000  0.494962E+000  0.267279E+000  0.000000E+000
  0.000000E+000  0.000000E+000  0.316633E+000 -0.415538E+001 -0.447201E+001  0.505430E+000  0.272932E+000  0.494570E+000  0.267068E+000  0.000000E+000
  0.000000E+000  0.000000E+000  0.318637E+000 -0.414383E+001 -0.446246E+001  0.505818E+000  0.273142E+000  0.494182E+000  0.266858E+000  0.000000E+000
  0.000000E+000  0.000000E+000  0.320641E+000 -0.413238E+001 -0.445302E+001  0.506202E+000  0.273349E+000  0.493798E+000  0.266651E+000  0.000000E+000
  0.000000E+000  0.000000E+000  0.322645E+000 -0.412105E+001 -0.444369E+001  0.506584E+000  0.273555E+000  0.493416E+000  0.266445E+000  0.000000E+000
  0.000000E+000  0.000000E+000  0.324649E+000 -0.410982E+001 -0.443447E+001  0.506962E+000  0.273760E+000  0.493038E+000  0.266240E+000  0.000000E+000
  0.000000E+000  0.000000E+000  0.326653E+000 -0.409869E+001 -0.442534E+001  0.507337E+000  0.273962E+000  0.492663E+000  0.266038E+000  0.000000E+000
  0.000000E+000  0.000000E+000  0.328657E+000 -0.408766E+001 -0.441632E+001  0.507709E+000  0.274163E+000  0.492291E+000  0.265837E+000  0.000000E+000
  0.000000E+000  0.000000E+000  0.330661E+000 -0.407674E+001 -0.440740E+001  0.508078E+000  0.274362E+000  0.491922E+000  0.265638E+000  0.000000E+000
  0.000000E+000  0.000000E+000  0.332665E+000 -0.406591E+001 -0.439858E+001  0.508444E+000  0.274560E+000  0.491556E+000  0.265440E+000  0.000000E+000
  0.000000E+000  0.000000E+000  0.334669E+000 -0.405518E+001 -0.438985E+001  0.508807E+000  0.274756E+000  0.491193E+000  0.265244E+000  0.000000E+000
  0.000000E+000  0.000000E+000  0.336673E+000 -0.404455E+001 -0.438122E+001  0.509166E+000  0.274950E+000  0.490834E+000  0.265050E+000  0.000000E+000
  0.000000E+000  0.000000E+000  0.338677E+000 -0.403401E+001 -0.437269E+001  0.509523E+000  0.275142E+000  0.490477E+000  0.264858E+000  0.000000E+000
  0.000000E+000  0.000000E+000  0.340681E+000 -0.402357E+001 -0.436425E+001  0.509877E+000  0.275333E+000  0.490123E+000  0.264667E+000  0.000000E+000
  0.000000E+000  0.000000E+000  0.342685E+000 -0.401321E+001 -0.435590E+001  0.510228E+000  0.275523E+000  0.489772E+000  0.264477E+000  0.000000E+000
  0.000000E+000  0.000000E+000  0.344689E+000 -0.400295E+001 -0.434764E+001  0.510575E+000  0.275711E+000  0.489425E+000  0.264289E+000  0.000000E+000
  0.000000E+000  0.000000E+000  0.346693E+000 -0.399278E+001 -0.433947E+001  0.510920E+000  0.275897E+000  0.489080E+000  0.264103E+000  0.000000E+000
  0.000000E+000  0.000000E+000  0.348697E+000 -0.398270E+001 -0.433139E+001  0.511263E+000  0.276082E+000  0.488737E+000  0.263918E+000  0.000000E+000
  0.000000E+000  0.000000E+000  0.350701E+000 -0.397270E+001 -0.432340E+001  0.511602E+000  0.276265E+000  0.488398E+000  0.263735E+000  0.000000E+000
  0.000000E+000  0.000000E+000  0.352705E+000 -0.396279E+001 -0.431550E+001  0.511938E+000  0.276447E+000  0.488062E+000  0.263553E+000  0.000000E+000
  0.000000E+000  0.000000E+000  0.354709E+000 -0.395297E+001 -0.430768E+001  0.512272E+000  0.276627E+000  0.487728E+000  0.263373E+000  0.000000E+000
  0.000000E+000  0.000000E+000  0.356713E+000 -0.394322E+001 -0.429994E+001  0.512603E+000  0.276806E+000  0.487397E+000  0.263194E+000  0.000000E+000
  0.000000E+000  0.000000E+000  0.358717E+000 -0.393357E+001 -0.429228E+001  0.512931E+000  0.276983E+000  0.487069E+000  0.263017E+000  0.000000E+000
  0.000000E+000  0.000000E+000  0.360721E+000 -0.392399E+001 -0.428471E+001  0.513257E+000  0.277159E+000  0.486743E+000  0.262841E+000  0.000000E+000
  0.000000E+000  0.000000E+000  0.362725E+000 -0.391449E+001 -0.427722E+001  0.513579E+000  0.277333E+000  0.486421E+000  0.262667E+000  0.000000E+000
  0.000000E+000  0.000000E+000  0.364729E+000 -0.390508E+001 -0.426981E+001  0.513899E+000  0.277506E+000  0.486101E+000  0.262494E+000  0.000000E+000
  0.000000E+000  0.000000E+000  0.366733E+000 -0.389574E+001 -0.426247E+001  0.514217E+000  0.277677E+000  0.485783E+000  0.262323E+000  0.000000E+000
  0.000000E+000  0.000000E+000  0.368737E+000 -0.388648E+001 -0.425522E+001  0.514532E+000  0.277847E+000  0.485468E+000  0.262153E+000  0.000000E+000
  0.000000E+000  0.000000E+000  0.370741E+000 -0.387730E+001 -0.424804E+001  0.514844E+000  0.278016E+000  0.485156E+000  0.261984E+000  0.000000E+000
  0.000000E+000  0.000000E+000  0.372745E+000 -0.386819E+001 -0.424093E+001  0.515154E+000  0.278183E+000  0.484846E+000  0.261817E+000  0.000000E+000
  0.000000E+000  0.000000E+000  0.374749E+000 -0.385916E+001 -0.423391E+001  0.515461E+000  0.278349E+000  0.484539E+000  0.261651E+000  0.000000E+000
  0.000000E+000  0.000000E+000  0.376754E+000 -0.385020E+001 -0.422695E+001  0.515765E+000  0.278513E+000  0.484235E+000  0.261487E+000  0.000000E+000
  0.000000E+000  0.000000E+000  0.378758E+000 -0.384131E+001 -0.422007E+001  0.516067E+000  0.278676E+000  0.483933E+000  0.261324E+000  0.000000E+000
  0.000000E+000  0.000000E+000  0.380762E+000 -0.383250E+001 -0.421326E+001  0.516367E+000  0.278838E+000  0.483633E+000  0.261162E+000  0.000000E+000
  0.000000E+000  0.000000E+000  0.382766E+000 -0.382375E+001 -0.420652E+001  0.516664E+000  0.278998E+000  0.483336E+000  0.261002E+000  0.000000E+000
  0.000000E+000  0.000000E+000  0.384770E+000 -0.381508E+001 -0.419985E+001  0.516958E+000  0.279157E+000  0.483042E+000  0.260843E+000  0.000000E+000
  0.000000E+000  0.000000E+000  0.386774E+000 -0.380648E+001 -0.419325E+001  0.517250E+000  0.279315E+000  0.482750E+000  0.260685E+000  0.000000E+000
  0.000000E+000  0.000000E+000  0.388778E+000 -0.379795E+001 -0.418672E+001  0.517540E+000  0.279472E+000  0.482460E+000  0.260528E+000  0.000000E+000
  0.000000E+000  0.000000E+000  0.390782E+000 -0.378948E+001 -0.418026E+001  0.517827E+000  0.279627E+000  0.482173E+000  0.260373E+000  0.000000E+000
  0.000000E+000  0.000000E+000  0.392786E+000 -0.378108E+001 -0.417387E+001  0.518112E+000  0.279780E+000  0.481888E+000  0.260220E+000  0.000000E+000