title = "dataset transp-updrld"
variables = "x", "y", "z", "h_w", "p_w", "s_w", "theta_a", "s_a", "theta_g", "q_root"
zone t = "Flow variables, solution time =  1.000E+00 days        " i =  500, j =    1, k =    1,  f=point
  0.000000E+000  0.000000E+000  0.000000E+000 -0.100000E+002 -0.100000E+002  0.381837E+000  0.206192E+000  0.618163E+000  0.333808E+000  0.000000E+000
  0.000000E+000  0.000000E+000  0.200401E-002 -0.973791E+001 -0.973992E+001  0.385189E+000  0.208002E+000  0.614811E+000  0.331998E+000  0.000000E+000
  0.000000E+000  0.000000E+000  0.400802E-002 -0.949666E+001 -0.950066E+001  0.388393E+000  0.209732E+000  0.611607E+000  0.330268E+000  0.000000E+000
  0.000000E+000  0.000000E+000  0.601202E-002 -0.927356E+001 -0.927958E+001  0.391463E+000  0.211390E+000  0.608537E+000  0.328610E+000  0.000000E+000
  0.000000E+000  0.000000E+000  0.801603E-002 -0.906643E+001 -0.907445E+001  0.394412E+000  0.212982E+000  0.605588E+000  0.327018E+000  0.000000E+000
  0.000000E+000  0.000000E+000  0.100200E-001 -0.887340E+001 -0.888342E+001  0.397248E+000  0.214514E+000  0.602752E+000  0.325486E+000  0.000000E+000
  0.000000E+000  0.000000E+000  0.120240E-001 -0.869292E+001 -0.870495E+001  0.399982E+000  0.215990E+000  0.600018E+000  0.324010E+000  0.000000E+000
  0.000000E+000  0.000000E+000  0.140281E-001 -0.852366E+001 -0.853769E+001  0.402620E+000  0.217415E+000  0.597380E+000  0.322585E+000  0.000000E+000
  0.000000E+000  0.000000E+000  0.160321E-001 -0.836447E+001 -0.838050E+001  0.405171E+000  0.218792E+000  0.594829E+000  0.321208E+000  0.000000E+000
  0.000000E+000  0.000000E+000  0.180361E-001 -0.821437E+001 -0.823240E+001  0.407640E+000  0.220126E+000  0.592360E+000  0.319874E+000  0.000000E+000
  0.000000E+000  0.000000E+000  0.200401E-001 -0.807251E+001 -0.809255E+001  0.410033E+000  0.221418E+000  0.589967E+000  0.318582E+000  0.000000E+000
  0.000000E+000  0.000000E+000  0.220441E-001 -0.793814E+001 -0.796018E+001  0.412356E+000  0.222672E+000  0.587644E+000  0.317328E+000  0.000000E+000
  0.000000E+000  0.000000E+000  0.240481E-001 -0.781061E+001 -0.783465E+001  0.414611E+000  0.223890E+000  0.585389E+000  0.316110E+000  0.000000E+000
  0.000000E+000  0.000000E+000  0.260521E-001 -0.768934E+001 -0.771539E+001  0.416804E+000  0.225074E+000  0.583196E+000  0.314926E+000  0.000000E+000
  0.000000E+000  0.000000E+000  0.280561E-001 -0.757382E+001 -0.760188E+001  0.418938E+000  0.226227E+000  0.581062E+000  0.313773E+000  0.000000E+000
  0.000000E+000  0.000000E+000  0.300601E-001 -0.746361E+001 -0.749367E+001  0.421017E+000  0.227349E+000  0.578983E+000  0.312651E+000  0.000000E+000
  0.000000E+000  0.000000E+000  0.320641E-001 -0.735829E+001 -0.739035E+001  0.423043E+000  0.228443E+000  0.576957E+000  0.311557E+000  0.000000E+000
  0.000000E+000  0.000000E+000  0.340681E-001 -0.725750E+001 -0.729157E+001  0.425020E+000  0.229511E+000  0.574980E+000  0.310489E+000  0.000000E+000
  0.000000E+000  0.000000E+000  0.360721E-001 -0.716092E+001 -0.719700E+001  0.426950E+000  0.230553E+000  0.573050E+000  0.309447E+000  0.000000E+000
  0.000000E+000  0.000000E+000  0.380762E-001 -0.706826E+001 -0.710634E+001  0.428835E+000  0.231571E+000  0.571165E+000  0.308429E+000  0.000000E+000
  0.000000E+000  0.000000E+000  0.400802E-001 -0.697925E+001 -0.701933E+001  0.430678E+000  0.232566E+000  0.569322E+000  0.307434E+000  0.000000E+000
  0.000000E+000  0.000000E+000  0.420842E-001 -0.689364E+001 -0.693573E+001  0.432480E+000  0.233539E+000  0.567520E+000  0.306461E+000  0.000000E+000
  0.000000E+000  0.000000E+000  0.440882E-001 -0.681123E+001 -0.685532E+001  0.434244E+000  0.234492E+000  0.565756E+000  0.305508E+000  0.000000E+000
  0.000000E+000  0.000000E+000  0.460922E-001 -0.673181E+001 -0.677790E+001  0.435971E+000  0.235424E+000  0.564029E+000  0.304576E+000  0.000000E+000
  0.000000E+000  0.000000E+000  0.480962E-001 -0.665519E+001 -0.670329E+001  0.437662E+000  0.236338E+000  0.562338E+000  0.303662E+000  0.000000E+000
  0.000000E+000  0.000000E+000  0.501002E-001 -0.658122E+001 -0.663132E+001  0.439320E+000  0.237233E+000  0.560680E+000  0.302767E+000  0.000000E+000
  0.000000E+000  0.000000E+000  0.521042E-001 -0.650974E+001 -0.656185E+001  0.440946E+000  0.238111E+000  0.559054E+000  0.301889E+000  0.000000E+000
  0.000000E+000  0.000000E+000  0.541082E-001 -0.644061E+001 -0.649472E+001  0.442540E+000  0.238972E+000  0.557460E+000  0.301028E+000  0.000000E+000
  0.000000E+000  0.000000E+000  0.561122E-001 -0.637369E+001 -0.642981E+001  0.444105E+000  0.239817E+000  0.555895E+000  0.300183E+000  0.000000E+000
  0.000000E+000  0.000000E+000  0.581162E-001 -0.630888E+001 -0.636700E+001  0.445641E+000  0.240646E+000  0.554359E+000  0.299354E+000  0.000000E+000
  0.000000E+000  0.000000E+000  0.601202E-001 -0.624605E+001 -0.630617E+001  0.447150E+000  0.241461E+000  0.552850E+000  0.298539E+000  0.000000E+000
  0.000000E+000  0.000000E+000  0.621242E-001 -0.618511E+001 -0.624723E+001  0.448632E+000  0.242261E+000  0.551368E+000  0.297739E+000  0.000000E+000
  0.000000E+000  0.000000E+000  0.641283E-001 -0.612596E+001 -0.619008E+001  0.450088E+000  0.243048E+000  0.549912E+000  0.296952E+000  0.000000E+000
  0.000000E+000  0.000000E+000  0.661323E-001 -0.606850E+001 -0.613464E+001  0.451520E+000  0.243821E+000  0.548480E+000  0.296179E+000  0.000000E+000
  0.000000E+000  0.000000E+000  0.681363E-001 -0.601267E+001 -0.608081E+001  0.452928E+000  0.244581E+000  0.547072E+000  0.295419E+000  0.000000E+000
  0.000000E+000  0.000000E+000  0.701403E-001 -0.595838E+001 -0.602852E+001  0.454313E+000  0.245329E+000  0.545687E+000  0.294671E+000  0.000000E+000
  0.000000E+000  0.000000E+000  0.721443E-001 -0.590556E+001 -0.597770E+001  0.455676E+000  0.246065E+000  0.544324E+000  0.293935E+000  0.000000E+000
  0.000000E+000  0.000000E+000  0.741483E-001 -0.585414E+001 -0.592829E+001  0.457017E+000  0.246789E+000  0.542983E+000  0.293211E+000  0.000000E+000
  0.000000E+000  0.000000E+000  0.761523E-001 -0.580406E+001 -0.588021E+001  0.458337E+000  0.247502E+000  0.541663E+000  0.292498E+000  0.000000E+000
  0.000000E+000  0.000000E+000  0.781563E-001 -0.575526E+001 -0.583341E+001  0.459637E+000  0.248204E+000  0.540363E+000  0.291796E+000  0.000000E+000
  0.000000E+000  0.000000E+000  0.801603E-001 -0.570768E+001 -0.578784E+001  0.460917E+000  0.248895E+000  0.539083E+000  0.291105E+000  0.000000E+000
  0.000000E+000  0.000000E+000  0.821643E-001 -0.566128E+001 -0.574344E+001  0.462179E+000  0.249577E+000  0.537821E+000  0.290423E+000  0.000000E+000
  0.000000E+000  0.000000E+000  0.841683E-001 -0.561600E+001 -0.570017E+001  0.463422E+000  0.250248E+000  0.536578E+000  0.289752E+000  0.000000E+000
  0.000000E+000  0.000000E+000  0.861723E-001 -0.557180E+001 -0.565797E+001  0.464647E+000  0.250909E+000  0.535353E+000  0.289091E+000  0.000000E+000
  0.000000E+000  0.000000E+000  0.881764E-001 -0.552864E+001 -0.561681E+001  0.465855E+000  0.251562E+000  0.534145E+000  0.288438E+000  0.000000E+000
  0.000000E+000  0.000000E+000  0.901804E-001 -0.548646E+001 -0.557664E+001  0.467045E+000  0.252205E+000  0.532955E+000  0.287795E+000  0.000000E+000
  0.000000E+000  0.000000E+000  0.921844E-001 -0.544525E+001 -0.553743E+001  0.468220E+000  0.252839E+000  0.531780E+000  0.287161E+000  0.000000E+000
  0.000000E+000  0.000000E+000  0.941884E-001 -0.540494E+001 -0.549913E+001  0.469378E+000  0.253464E+000  0.530622E+000  0.286536E+000  0.000000E+000
  0.000000E+000  0.000000E+000  0.961924E-001 -0.536553E+001 -0.546172E+001  0.470521E+000  0.254081E+000  0.529479E+000  0.285919E+000  0.000000E+000
  0.000000E+000  0.000000E+000  0.981964E-001 -0.532696E+001 -0.542516E+001  0.471648E+000  0.254690E+000  0.528352E+000  0.285310E+000  0.000000E+000
  0.000000E+000  0.000000E+000  0.100200E+000 -0.528921E+001 -0.538941E+001  0.472761E+000  0.255291E+000  0.527239E+000  0.284709E+000  0.000000E+000
  0.000000E+000  0.000000E+000  0.102204E+000 -0.525225E+001 -0.535446E+001  0.473859E+000  0.255884E+000  0.526141E+000  0.284116E+000  0.000000E+000
  0.000000E+000  0.000000E+000  0.104208E+000 -0.521606E+001 -0.532027E+001  0.474944E+000  0.256470E+000  0.525056E+000  0.283530E+000  0.000000E+000
  0.000000E+000  0.000000E+000  0.106212E+000 -0.518059E+001 -0.528681E+001  0.476014E+000  0.257048E+000  0.523986E+000  0.282952E+000  0.000000E+000
  0.000000E+000  0.000000E+000  0.108216E+000 -0.514584E+001 -0.525406E+001  0.477072E+000  0.257619E+000  0.522928E+000  0.282381E+000  0.000000E+000
  0.000000E+000  0.000000E+000  0.110220E+000 -0.511177E+001 -0.522199E+001  0.478116E+000  0.258182E+000  0.521884E+000  0.281818E+000  0.000000E+000
  0.000000E+000  0.000000E+000  0.112224E+000 -0.507837E+001 -0.519059E+001  0.479147E+000  0.258739E+000  0.520853E+000  0.281261E+000  0.000000E+000
  0.000000E+000  0.000000E+000  0.114228E+000 -0.504560E+001 -0.515983E+001  0.480166E+000  0.259290E+000  0.519834E+000  0.280710E+000  0.000000E+000
  0.000000E+000  0.000000E+000  0.116232E+000 -0.501345E+001 -0.512969E+001  0.481173E+000  0.259833E+000  0.518827E+000  0.280167E+000  0.000000E+000
  0.000000E+000  0.000000E+000  0.118236E+000 -0.498191E+001 -0.510014E+001  0.482167E+000  0.260370E+000  0.517833E+000  0.279630E+000  0.000000E+000
  0.000000E+000  0.000000E+000  0.120240E+000 -0.495094E+001 -0.507118E+001  0.483151E+000  0.260901E+000  0.516849E+000  0.279099E+000  0.000000E+000
  0.000000E+000  0.000000E+000  0.122244E+000 -0.492053E+001 -0.504278E+001  0.484122E+000  0.261426E+000  0.515878E+000  0.278574E+000  0.000000E+000
  0.000000E+000  0.000000E+000  0.124248E+000 -0.489067E+001 -0.501492E+001  0.485083E+000  0.261945E+000  0.514917E+000  0.278055E+000  0.000000E+000
  0.000000E+000  0.000000E+000  0.126253E+000 -0.486134E+001 -0.498759E+001  0.486033E+000  0.262458E+000  0.513967E+000  0.277542E+000  0.000000E+000
  0.000000E+000  0.000000E+000  0.128257E+000 -0.483252E+001 -0.496078E+001  0.486972E+000  0.262965E+000  0.513028E+000  0.277035E+000  0.000000E+000
  0.000000E+000  0.000000E+000  0.130261E+000 -0.480419E+001 -0.493445E+001  0.487901E+000  0.263466E+000  0.512099E+000  0.276534E+000  0.000000E+000
  0.000000E+000  0.000000E+000  0.132265E+000 -0.477635E+001 -0.490862E+001  0.488819E+000  0.263962E+000  0.511181E+000  0.276038E+000  0.000000E+000
  0.000000E+000  0.000000E+000  0.134269E+000 -0.474898E+001 -0.488324E+001  0.489727E+000  0.264453E+000  0.510273E+000  0.275547E+000  0.000000E+000
  0.000000E+000  0.000000E+000  0.136273E+000 -0.472206E+001 -0.485833E+001  0.490626E+000  0.264938E+000  0.509374E+000  0.275062E+000  0.000000E+000
  0.000000E+000  0.000000E+000  0.138277E+000 -0.469558E+001 -0.483385E+001  0.491515E+000  0.265418E+000  0.508485E+000  0.274582E+000  0.000000E+000
  0.000000E+000  0.000000E+000  0.140281E+000 -0.466953E+001 -0.480981E+001  0.492394E+000  0.265893E+000  0.507606E+000  0.274107E+000  0.000000E+000
  0.000000E+000  0.000000E+000  0.142285E+000 -0.464389E+001 -0.478618E+001  0.493264E+000  0.266363E+000  0.506736E+000  0.273637E+000  0.000000E+000
  0.000000E+000  0.000000E+000  0.144289E+000 -0.461866E+001 -0.476295E+001  0.494125E+000  0.266828E+000  0.505875E+000  0.273172E+000  0.000000E+000
  0.000000E+000  0.000000E+000  0.146293E+000 -0.459383E+001 -0.474012E+001  0.494977E+000  0.267288E+000  0.505023E+000  0.272712E+000  0.000000E+000
  0.000000E+000  0.000000E+000  0.148297E+000 -0.456938E+001 -0.471768E+001  0.495821E+000  0.267743E+000  0.504179E+000  0.272257E+000  0.000000E+000
  0.000000E+000  0.000000E+000  0.150301E+000 -0.454530E+001 -0.469560E+001  0.496655E+000  0.268194E+000  0.503345E+000  0.271806E+000  0.000000E+000
  0.000000E+000  0.000000E+000  0.152305E+000 -0.452159E+001 -0.467390E+001  0.497482E+000  0.268640E+000  0.502518E+000  0.271360E+000  0.000000E+000
  0.000000E+000  0.000000E+000  0.154309E+000 -0.449823E+001 -0.465254E+001  0.498300E+000  0.269082E+000  0.501700E+000  0.270918E+000  0.000000E+000
  0.000000E+000  0.000000E+000  0.156313E+000 -0.447522E+001 -0.463153E+001  0.499110E+000  0.269519E+000  0.500890E+000  0.270481E+000  0.000000E+000
  0.000000E+000  0.000000E+000  0.158317E+000 -0.445254E+001 -0.461086E+001  0.499912E+000  0.269952E+000  0.500088E+000  0.270048E+000  0.000000E+000
  0.000000E+000  0.000000E+000  0.160321E+000 -0.443019E+001 -0.459051E+001  0.500706E+000  0.270381E+000  0.499294E+000  0.269619E+000  0.000000E+000
  0.000000E+000  0.000000E+000  0.162325E+000 -0.440816E+001 -0.457049E+001  0.501492E+000  0.270806E+000  0.498508E+000  0.269194E+000  0.000000E+000
  0.000000E+000  0.000000E+000  0.164329E+000 -0.438645E+001 -0.455077E+001  0.502271E+000  0.271226E+000  0.497729E+000  0.268774E+000  0.000000E+000
  0.000000E+000  0.000000E+000  0.166333E+000 -0.436503E+001 -0.453136E+001  0.503042E+000  0.271643E+000  0.496958E+000  0.268357E+000  0.000000E+000
  0.000000E+000  0.000000E+000  0.168337E+000 -0.434391E+001 -0.451225E+001  0.503806E+000  0.272055E+000  0.496194E+000  0.267945E+000  0.000000E+000
  0.000000E+000  0.000000E+000  0.170341E+000 -0.432309E+001 -0.449343E+001  0.504563E+000  0.272464E+000  0.495437E+000  0.267536E+000  0.000000E+000
  0.000000E+000  0.000000E+000  0.172345E+000 -0.430254E+001 -0.447488E+001  0.505313E+000  0.272869E+000  0.494687E+000  0.267131E+000  0.000000E+000
  0.000000E+000  0.000000E+000  0.174349E+000 -0.428227E+001 -0.445662E+001  0.506056E+000  0.273270E+000  0.493944E+000  0.266730E+000  0.000000E+000
  0.000000E+000  0.000000E+000  0.176353E+000 -0.426227E+001 -0.443862E+001  0.506792E+000  0.273667E+000  0.493208E+000  0.266333E+000  0.000000E+000
  0.000000E+000  0.000000E+000  0.178357E+000 -0.424253E+001 -0.442089E+001  0.507521E+000  0.274061E+000  0.492479E+000  0.265939E+000  0.000000E+000
  0.000000E+000  0.000000E+000  0.180361E+000 -0.422305E+001 -0.440341E+001  0.508243E+000  0.274451E+000  0.491757E+000  0.265549E+000  0.000000E+000
  0.000000E+000  0.000000E+000  0.182365E+000 -0.420382E+001 -0.438619E+001  0.508959E+000  0.274838E+000  0.491041E+000  0.265162E+000  0.000000E+000
  0.000000E+000  0.000000E+000  0.184369E+000 -0.418484E+001 -0.436921E+001  0.509669E+000  0.275221E+000  0.490331E+000  0.264779E+000  0.000000E+000
  0.000000E+000  0.000000E+000  0.186373E+000 -0.416609E+001 -0.435247E+001  0.510372E+000  0.275601E+000  0.489628E+000  0.264399E+000  0.000000E+000
  0.000000E+000  0.000000E+000  0.188377E+000 -0.414759E+001 -0.433596E+001  0.511069E+000  0.275977E+000  0.488931E+000  0.264023E+000  0.000000E+000
  0.000000E+000  0.000000E+000  0.190381E+000 -0.412931E+001 -0.431969E+001  0.511760E+000  0.276350E+000  0.488240E+000  0.263650E+000  0.000000E+000
  0.000000E+000  0.000000E+000  0.192385E+000 -0.411125E+001 -0.430364E+001  0.512445E+000  0.276720E+000  0.487555E+000  0.263280E+000  0.000000E+000
  0.000000E+000  0.000000E+000  0.194389E+000 -0.409342E+001 -0.428780E+001  0.513124E+000  0.277087E+000  0.486876E+000  0.262913E+000  0.000000E+000
  0.000000E+000  0.000000E+000  0.196393E+000 -0.407580E+001 -0.427219E+001  0.513797E+000  0.277450E+000  0.486203E+000  0.262550E+000  0.000000E+000
  0.000000E+000  0.000000E+000  0.198397E+000 -0.405839E+001 -0.425678E+001  0.514464E+000  0.277810E+000  0.485536E+000  0.262190E+000  0.000000E+000
  0.000000E+000  0.000000E+000  0.200401E+000 -0.404118E+001 -0.424158E+001  0.515125E+000  0.278168E+000  0.484875E+000  0.261832E+000  0.000000E+000
  0.000000E+000  0.000000E+000  0.202405E+000 -0.402418E+001 -0.422658E+001  0.515781E+000  0.278522E+000  0.484219E+000  0.261478E+000  0.000000E+000
  0.000000E+000  0.000000E+000  0.204409E+000 -0.400737E+001 -0.421178E+001  0.516432E+000  0.278873E+000  0.483568E+000  0.261127E+000  0.000000E+000
  0.000000E+000  0.000000E+000  0.206413E+000 -0.399076E+001 -0.419718E+001  0.517076E+000  0.279221E+000  0.482924E+000  0.260779E+000  0.000000E+000
  0.000000E+000  0.000000E+000  0.208417E+000 -0.397434E+001 -0.418276E+001  0.517716E+000  0.279567E+000  0.482284E+000  0.260433E+000  0.000000E+000
  0.000000E+000  0.000000E+000  0.210421E+000 -0.395810E+001 -0.416852E+001  0.518350E+000  0.279909E+000  0.481650E+000  0.260091E+000  0.000000E+000
  0.000000E+000  0.000000E+000  0.212425E+000 -0.394205E+001 -0.415447E+001  0.518979E+000  0.280249E+000  0.481021E+000  0.259751E+000  0.000000E+000
  0.000000E+000  0.000000E+000  0.214429E+000 -0.392617E+001 -0.414060E+001  0.519603E+000  0.280586E+000  0.480397E+000  0.259414E+000  0.000000E+000
  0.000000E+000  0.000000E+000  0.216433E+000 -0.391047E+001 -0.412690E+001  0.520222E+000  0.280920E+000  0.479778E+000  0.259080E+000  0.000000E+000
  0.000000E+000  0.000000E+000  0.218437E+000 -0.389494E+001 -0.411337E+001  0.520836E+000  0.281251E+000  0.479164E+000  0.258749E+000  0.000000E+000
  0.000000E+000  0.000000E+000  0.220441E+000 -0.387957E+001 -0.410002E+001  0.521445E+000  0.281580E+000  0.478555E+000  0.258420E+000  0.000000E+000
  0.000000E+000  0.000000E+000  0.222445E+000 -0.386438E+001 -0.408682E+001  0.522049E+000  0.281906E+000  0.477951E+000  0.258094E+000  0.000000E+000
  0.000000E+000  0.000000E+000  0.224449E+000 -0.384934E+001 -0.407379E+001  0.522648E+000  0.282230E+000  0.477352E+000  0.257770E+000  0.000000E+000
  0.000000E+000  0.000000E+000  0.226453E+000 -0.383446E+001 -0.406091E+001  0.523243E+000  0.282551E+000  0.476757E+000  0.257449E+000  0.000000E+000
  0.000000E+000  0.000000E+000  0.228457E+000 -0.381974E+001 -0.404819E+001  0.523832E+000  0.282869E+000  0.476168E+000  0.257131E+000  0.000000E+000
  0.000000E+000  0.000000E+000  0.230461E+000 -0.380516E+001 -0.403563E+001  0.524418E+000  0.283185E+000  0.475582E+000  0.256815E+000  0.000000E+000
  0.000000E+000  0.000000E+000  0.232465E+000 -0.379074E+001 -0.402321E+001  0.524998E+000  0.283499E+000  0.475002E+000  0.256501E+000  0.000000E+000
  0.000000E+000  0.000000E+000  0.234469E+000 -0.377647E+001 -0.401094E+001  0.525574E+000  0.283810E+000  0.474426E+000  0.256190E+000  0.000000E+000
  0.000000E+000  0.000000E+000  0.236473E+000 -0.376234E+001 -0.399881E+001  0.526146E+000  0.284119E+000  0.473854E+000  0.255881E+000  0.000000E+000
  0.000000E+000  0.000000E+000  0.238477E+000 -0.374835E+001 -0.398682E+001  0.526713E+000  0.284425E+000  0.473287E+000  0.255575E+000  0.000000E+000
  0.000000E+000  0.000000E+000  0.240481E+000 -0.373450E+001 -0.397498E+001  0.527276E+000  0.284729E+000  0.472724E+000  0.255271E+000  0.000000E+000
  0.000000E+000  0.000000E+000  0.242485E+000 -0.372078E+001 -0.396327E+001  0.527835E+000  0.285031E+000  0.472165E+000  0.254969E+000  0.000000E+000
  0.000000E+000  0.000000E+000  0.244489E+000 -0.370720E+001 -0.395169E+001  0.528390E+000  0.285330E+000  0.471610E+000  0.254670E+000  0.000000E+000
  0.000000E+000  0.000000E+000  0.246493E+000 -0.369375E+001 -0.394024E+001  0.528940E+000  0.285628E+000  0.471060E+000  0.254372E+000  0.000000E+000
  0.000000E+000  0.000000E+000  0.248497E+000 -0.368043E+001 -0.392893E+001  0.529486E+000  0.285923E+000  0.470514E+000  0.254077E+000  0.000000E+000
  0.000000E+000  0.000000E+000  0.250501E+000 -0.366724E+001 -0.391774E+001  0.530029E+000  0.286215E+000  0.469971E+000  0.253785E+000  0.000000E+000
  0.000000E+000  0.000000E+000  0.252505E+000 -0.365417E+001 -0.390667E+001  0.530567E+000  0.286506E+000  0.469433E+000  0.253494E+000  0.000000E+000
  0.000000E+000  0.000000E+000  0.254509E+000 -0.364122E+001 -0.389573E+001  0.531101E+000  0.286795E+000  0.468899E+000  0.253205E+000  0.000000E+000
  0.000000E+000  0.000000E+000  0.256513E+000 -0.362840E+001 -0.388491E+001  0.531632E+000  0.287081E+000  0.468368E+000  0.252919E+000  0.000000E+000
  0.000000E+000  0.000000E+000  0.258517E+000 -0.361569E+001 -0.387420E+001  0.532158E+000  0.287365E+000  0.467842E+000  0.252635E+000  0.000000E+000
  0.000000E+000  0.000000E+000  0.260521E+000 -0.360310E+001 -0.386362E+001  0.532681E+000  0.287648E+000  0.467319E+000  0.252352E+000  0.000000E+000
  0.000000E+000  0.000000E+000  0.262525E+000 -0.359062E+001 -0.385314E+001  0.533200E+000  0.287928E+000  0.466800E+000  0.252072E+000  0.000000E+000
  0.000000E+000  0.000000E+000  0.264529E+000 -0.357825E+001 -0.384278E+001  0.533715E+000  0.288206E+000  0.466285E+000  0.251794E+000  0.000000E+000
  0.000000E+000  0.000000E+000  0.266533E+000 -0.356600E+001 -0.383253E+001  0.534227E+000  0.288482E+000  0.465773E+000  0.251518E+000  0.000000E+000
  0.000000E+000  0.000000E+000  0.268537E+000 -0.355385E+001 -0.382239E+001  0.534735E+000  0.288757E+000  0.465265E+000  0.251243E+000  0.000000E+000
  0.000000E+000  0.000000E+000  0.270541E+000 -0.354181E+001 -0.381235E+001  0.535239E+000  0.289029E+000  0.464761E+000  0.250971E+000  0.000000E+000
  0.000000E+000  0.000000E+000  0.272545E+000 -0.352988E+001 -0.380242E+001  0.535740E+000  0.289300E+000  0.464260E+000  0.250700E+000  0.000000E+000
  0.000000E+000  0.000000E+000  0.274549E+000 -0.351804E+001 -0.379259E+001  0.536237E+000  0.289568E+000  0.463763E+000  0.250432E+000  0.000000E+000
  0.000000E+000  0.000000E+000  0.276553E+000 -0.350631E+001 -0.378287E+001  0.536731E+000  0.289835E+000  0.463269E+000  0.250165E+000  0.000000E+000
  0.000000E+000  0.000000E+000  0.278557E+000 -0.349468E+001 -0.377324E+001  0.537222E+000  0.290100E+000  0.462778E+000  0.249900E+000  0.000000E+000
  0.000000E+000  0.000000E+000  0.280561E+000 -0.348315E+001 -0.376371E+001  0.537709E+000  0.290363E+000  0.462291E+000  0.249637E+000  0.000000E+000
  0.000000E+000  0.000000E+000  0.282565E+000 -0.347172E+001 -0.375428E+001  0.538193E+000  0.290624E+000  0.461807E+000  0.249376E+000  0.000000E+000
  0.000000E+000  0.000000E+000  0.284569E+000 -0.346038E+001 -0.374494E+001  0.538673E+000  0.290883E+000  0.461327E+000  0.249117E+000  0.000000E+000
  0.000000E+000  0.000000E+000  0.286573E+000 -0.344913E+001 -0.373570E+001  0.539150E+000  0.291141E+000  0.460850E+000  0.248859E+000  0.000000E+000
  0.000000E+000  0.000000E+000  0.288577E+000 -0.343797E+001 -0.372655E+001  0.539624E+000  0.291397E+000  0.460376E+000  0.248603E+000  0.000000E+000
  0.000000E+000  0.000000E+000  0.290581E+000 -0.342691E+001 -0.371749E+001  0.540095E+000  0.291651E+000  0.459905E+000  0.248349E+000  0.000000E+000
  0.000000E+000  0.000000E+000  0.292585E+000 -0.341594E+001 -0.370852E+001  0.540563E+000  0.291904E+000  0.459437E+000  0.248096E+000  0.000000E+000
  0.000000E+000  0.000000E+000  0.294589E+000 -0.340505E+001 -0.369964E+001  0.541027E+000  0.292155E+000  0.458973E+000  0.247845E+000  0.000000E+000
  0.000000E+000  0.000000E+000  0.296593E+000 -0.339425E+001 -0.369084E+001  0.541489E+000  0.292404E+000  0.458511E+000  0.247596E+000  0.000000E+000
  0.000000E+000  0.000000E+000  0.298597E+000 -0.338353E+001 -0.368213E+001  0.541947E+000  0.292652E+000  0.458053E+000  0.247348E+000  0.000000E+000
  0.000000E+000  0.000000E+000  0.300601E+000 -0.337290E+001 -0.367350E+001  0.542403E+000  0.292898E+000  0.457597E+000  0.247102E+000  0.000000E+000
  0.000000E+000  0.000000E+000  0.302605E+000 -0.336235E+001 -0.366496E+001  0.542855E+000  0.293142E+000  0.457145E+000  0.246858E+000  0.000000E+000
  0.000000E+000  0.000000E+000  0.304609E+000 -0.335188E+001 -0.365649E+001  0.543305E+000  0.293385E+000  0.456695E+000  0.246615E+000  0.000000E+000
  0.000000E+000  0.000000E+000  0.306613E+000 -0.334150E+001 -0.364811E+001  0.543752E+000  0.293626E+000  0.456248E+000  0.246374E+000  0.000000E+000
  0.000000E+000  0.000000E+000  0.308617E+000 -0.333119E+001 -0.363980E+001  0.544195E+000  0.293865E+000  0.455805E+000  0.246135E+000  0.000000E+000
  0.000000E+000  0.000000E+000  0.310621E+000 -0.332096E+001 -0.363158E+001  0.544636E+000  0.294104E+000  0.455364E+000  0.245896E+000  0.000000E+000
  0.000000E+000  0.000000E+000  0.312625E+000 -0.331080E+001 -0.362343E+001  0.545074E+000  0.294340E+000  0.454926E+000  0.245660E+000  0.000000E+000
  0.000000E+000  0.000000E+000  0.314629E+000 -0.330072E+001 -0.361535E+001  0.545510E+000  0.294575E+000  0.454490E+000  0.245425E+000  0.000000E+000
  0.000000E+000  0.000000E+000  0.316633E+000 -0.329072E+001 -0.360735E+001  0.545942E+000  0.294809E+000  0.454058E+000  0.245191E+000  0.000000E+000
  0.000000E+000  0.000000E+000  0.318637E+000 -0.328078E+001 -0.359942E+001  0.546372E+000  0.295041E+000  0.453628E+000  0.244959E+000  0.000000E+000
  0.000000E+000  0.000000E+000  0.320641E+000 -0.327092E+001 -0.359157E+001  0.546800E+000  0.295272E+000  0.453200E+000  0.244728E+000  0.000000E+000
  0.000000E+000  0.000000E+000  0.322645E+000 -0.326113E+001 -0.358378E+001  0.547224E+000  0.295501E+000  0.452776E+000  0.244499E+000  0.000000E+000
  0.000000E+000  0.000000E+000  0.324649E+000 -0.325142E+001 -0.357606E+001  0.547646E+000  0.295729E+000  0.452354E+000  0.244271E+000  0.000000E+000
  0.000000E+000  0.000000E+000  0.326653E+000 -0.324176E+001 -0.356842E+001  0.548065E+000  0.295955E+000  0.451935E+000  0.244045E+000  0.000000E+000
  0.000000E+000  0.000000E+000  0.328657E+000 -0.323218E+001 -0.356084E+001  0.548482E+000  0.296180E+000  0.451518E+000  0.243820E+000  0.000000E+000
  0.000000E+000  0.000000E+000  0.330661E+000 -0.322267E+001 -0.355333E+001  0.548897E+000  0.296404E+000  0.451103E+000  0.243596E+000  0.000000E+000
  0.000000E+000  0.000000E+000  0.332665E+000 -0.321322E+001 -0.354588E+001  0.549308E+000  0.296626E+000  0.450692E+000  0.243374E+000  0.000000E+000
  0.000000E+000  0.000000E+000  0.334669E+000 -0.320383E+001 -0.353850E+001  0.549718E+000  0.296847E+000  0.450282E+000  0.243153E+000  0.000000E+000
  0.000000E+000  0.000000E+000  0.336673E+000 -0.319451E+001 -0.353119E+001  0.550124E+000  0.297067E+000  0.449876E+000  0.242933E+000  0.000000E+000
  0.000000E+000  0.000000E+000  0.338677E+000 -0.318526E+001 -0.352393E+001  0.550529E+000  0.297286E+000  0.449471E+000  0.242714E+000  0.000000E+000
  0.000000E+000  0.000000E+000  0.340681E+000 -0.317606E+001 -0.351674E+001  0.550931E+000  0.297503E+000  0.449069E+000  0.242497E+000  0.000000E+000
  0.000000E+000  0.000000E+000  0.342685E+000 -0.316693E+001 -0.350961E+001  0.551330E+000  0.297718E+000  0.448670E+000  0.242282E+000  0.000000E+000
  0.000000E+000  0.000000E+000  0.344689E+000 -0.315785E+001 -0.350254E+001  0.551728E+000  0.297933E+000  0.448272E+000  0.242067E+000  0.000000E+000
  0.000000E+000  0.000000E+000  0.346693E+000 -0.314884E+001 -0.349553E+001  0.552122E+000  0.298146E+000  0.447878E+000  0.241854E+000  0.000000E+000
  0.000000E+000  0.000000E+000  0.348697E+000 -0.313989E+001 -0.348858E+001  0.552515E+000  0.298358E+000  0.447485E+000  0.241642E+000  0.000000E+000
  0.000000E+000  0.000000E+000  0.350701E+000 -0.313099E+001 -0.348169E+001  0.552905E+000  0.298569E+000  0.447095E+000  0.241431E+000  0.000000E+000
  0.000000E+000  0.000000E+000  0.352705E+000 -0.312215E+001 -0.347486E+001  0.553293E+000  0.298778E+000  0.446707E+000  0.241222E+000  0.000000E+000
  0.000000E+000  0.000000E+000  0.354709E+000 -0.311337E+001 -0.346808E+001  0.553679E+000  0.298987E+000  0.446321E+000  0.241013E+000  0.000000E+000
  0.000000E+000  0.000000E+000  0.356713E+000 -0.310464E+001 -0.346135E+001  0.554063E+000  0.299194E+000  0.445937E+000  0.240806E+000  0.000000E+000
  0.000000E+000  0.000000E+000  0.358717E+000 -0.309597E+001 -0.345469E+001  0.554444E+000  0.299400E+000  0.445556E+000  0.240600E+000  0.000000E+000
  0.000000E+000  0.000000E+000  0.360721E+000 -0.308735E+001 -0.344807E+001  0.554824E+000  0.299605E+000  0.445176E+000  0.240395E+000  0.000000E+000
  0.000000E+000  0.000000E+000  0.362725E+000 -0.307879E+001 -0.344151E+001  0.555201E+000  0.299809E+000  0.444799E+000  0.240191E+000  0.000000E+000
  0.000000E+000  0.000000E+000  0.364729E+000 -0.307027E+001 -0.343500E+001  0.555576E+000  0.300011E+000  0.444424E+000  0.239989E+000  0.000000E+000
  0.000000E+000  0.000000E+000  0.366733E+000 -0.306181E+001 -0.342855E+001  0.555949E+000  0.300212E+000  0.444051E+000  0.239788E+000  0.000000E+000
  0.000000E+000  0.000000E+000  0.368737E+000 -0.305340E+001 -0.342214E+001  0.556320E+000  0.300413E+000  0.443680E+000  0.239587E+000  0.000000E+000
  0.000000E+000  0.000000E+000  0.370741E+000 -0.304505E+001 -0.341579E+001  0.556689E+000  0.300612E+000  0.443311E+000  0.239388E+000  0.000000E+000
  0.000000E+000  0.000000E+000  0.372745E+000 -0.303674E+001 -0.340948E+001  0.557056E+000  0.300810E+000  0.442944E+000  0.239190E+000  0.000000E+000
  0.000000E+000  0.000000E+000  0.374749E+000 -0.302848E+001 -0.340323E+001  0.557421E+000  0.301007E+000  0.442579E+000  0.238993E+000  0.000000E+000
  0.000000E+000  0.000000E+000  0.376754E+000 -0.302027E+001 -0.339702E+001  0.557783E+000  0.301203E+000  0.442217E+000  0.238797E+000  0.000000E+000
  0.000000E+000  0.000000E+000  0.378758E+000 -0.301210E+001 -0.339086E+001  0.558144E+000  0.301398E+000  0.441856E+000  0.238602E+000  0.000000E+000
  0.000000E+000  0.000000E+000  0.380762E+000 -0.300399E+001 -0.338475E+001  0.558503E+000  0.301592E+000  0.441497E+000  0.238408E+000  0.000000E+000
  0.000000E+000  0.000000E+000  0.382766E+000 -0.299592E+001 -0.337869E+001  0.558860E+000  0.301785E+000  0.441140E+000  0.238215E+000  0.000000E+000
  0.000000E+000  0.000000E+000  0.384770E+000 -0.298790E+001 -0.337267E+001  0.559216E+000  0.301976E+000  0.440784E+000  0.238024E+000  0.000000E+000
  0.000000E+000  0.000000E+000  0.386774E+000 -0.297992E+001 -0.336669E+001  0.559569E+000  0.302167E+000  0.440431E+000  0.237833E+000  0.000000E+000
  0.000000E+000  0.000000E+000  0.388778E+000 -0.297199E+001 -0.336077E+001  0.559920E+000  0.302357E+000  0.440080E+000  0.237643E+000  0.000000E+000
  0.000000E+000  0.000000E+000  0.390782E+000 -0.296410E+001 -0.335488E+001  0.560270E+000  0.302546E+000  0.439730E+000  0.237454E+000  0.000000E+000
  0.000000E+000  0.000000E+000  0.392786E+000 -0.295625E+001 -0.334904E+001  0.560618E+000  0.302734E+000  0.439382E+000  0.237266E+000  0.000000E+000