title = "dataset transp-updrld"
variables = "x", "y", "z", "vx", "vy", "vz"
zone t = "velocities, solution time =  3.000E+01 days        " i =   29, j =   29, k =    1,  f=point
  0.172414E-001  0.000000E+000  0.172414E-001 -0.109866E-012  0.000000E+000 -0.344922E-002
  0.517241E-001  0.000000E+000  0.172414E-001 -0.117463E-012  0.000000E+000 -0.344922E-002
  0.862069E-001  0.000000E+000  0.172414E-001 -0.544563E-013  0.000000E+000 -0.344922E-002
  0.120690E+000  0.000000E+000  0.172414E-001 -0.769357E-013  0.000000E+000 -0.344922E-002
  0.155172E+000  0.000000E+000  0.172414E-001 -0.111574E-012  0.000000E+000 -0.344922E-002
  0.189655E+000  0.000000E+000  0.172414E-001 -0.136452E-012  0.000000E+000 -0.344922E-002
  0.224138E+000  0.000000E+000  0.172414E-001 -0.154155E-012  0.000000E+000 -0.344922E-002
  0.258621E+000  0.000000E+000  0.172414E-001 -0.174533E-012  0.000000E+000 -0.344922E-002
  0.293103E+000  0.000000E+000  0.172414E-001 -0.213761E-012  0.000000E+000 -0.344922E-002
  0.327586E+000  0.000000E+000  0.172414E-001 -0.209560E-012  0.000000E+000 -0.344922E-002
  0.362069E+000  0.000000E+000  0.172414E-001 -0.239858E-012  0.000000E+000 -0.344922E-002
  0.396552E+000  0.000000E+000  0.172414E-001 -0.199453E-012  0.000000E+000 -0.344922E-002
  0.431034E+000  0.000000E+000  0.172414E-001 -0.136497E-012  0.000000E+000 -0.344922E-002
  0.465517E+000  0.000000E+000  0.172414E-001 -0.722972E-013  0.000000E+000 -0.344922E-002
  0.500000E+000  0.000000E+000  0.172414E-001  0.397053E-014  0.000000E+000 -0.344922E-002
  0.534483E+000  0.000000E+000  0.172414E-001  0.705420E-015  0.000000E+000 -0.344922E-002
  0.568966E+000  0.000000E+000  0.172414E-001 -0.126612E-013  0.000000E+000 -0.344922E-002
  0.603448E+000  0.000000E+000  0.172414E-001 -0.702927E-013  0.000000E+000 -0.344922E-002
  0.637931E+000  0.000000E+000  0.172414E-001 -0.189745E-012  0.000000E+000 -0.344922E-002
  0.672414E+000  0.000000E+000  0.172414E-001 -0.243832E-012  0.000000E+000 -0.344922E-002
  0.706897E+000  0.000000E+000  0.172414E-001 -0.235787E-012  0.000000E+000 -0.344922E-002
  0.741379E+000  0.000000E+000  0.172414E-001 -0.228791E-012  0.000000E+000 -0.344922E-002
  0.775862E+000  0.000000E+000  0.172414E-001 -0.191680E-012  0.000000E+000 -0.344922E-002
  0.810345E+000  0.000000E+000  0.172414E-001 -0.151419E-012  0.000000E+000 -0.344922E-002
  0.844828E+000  0.000000E+000  0.172414E-001 -0.143543E-012  0.000000E+000 -0.344922E-002
  0.879310E+000  0.000000E+000  0.172414E-001 -0.135682E-012  0.000000E+000 -0.344922E-002
  0.913793E+000  0.000000E+000  0.172414E-001 -0.118197E-012  0.000000E+000 -0.344922E-002
  0.948276E+000  0.000000E+000  0.172414E-001 -0.956220E-013  0.000000E+000 -0.344922E-002
  0.991379E+000  0.000000E+000  0.172414E-001 -0.809353E-013  0.000000E+000 -0.344922E-002
  0.172414E-001  0.000000E+000  0.517241E-001 -0.583920E-012  0.000000E+000 -0.366673E-002
  0.517241E-001  0.000000E+000  0.517241E-001 -0.667909E-012  0.000000E+000 -0.366673E-002
  0.862069E-001  0.000000E+000  0.517241E-001 -0.355502E-012  0.000000E+000 -0.366673E-002
  0.120690E+000  0.000000E+000  0.517241E-001 -0.490566E-012  0.000000E+000 -0.366673E-002
  0.155172E+000  0.000000E+000  0.517241E-001 -0.699995E-012  0.000000E+000 -0.366673E-002
  0.189655E+000  0.000000E+000  0.517241E-001 -0.857036E-012  0.000000E+000 -0.366673E-002
  0.224138E+000  0.000000E+000  0.517241E-001 -0.974034E-012  0.000000E+000 -0.366673E-002
  0.258621E+000  0.000000E+000  0.517241E-001 -0.110215E-011  0.000000E+000 -0.366673E-002
  0.293103E+000  0.000000E+000  0.517241E-001 -0.135697E-011  0.000000E+000 -0.366673E-002
  0.327586E+000  0.000000E+000  0.517241E-001 -0.133101E-011  0.000000E+000 -0.366673E-002
  0.362069E+000  0.000000E+000  0.517241E-001 -0.148302E-011  0.000000E+000 -0.366673E-002
  0.396552E+000  0.000000E+000  0.517241E-001 -0.124969E-011  0.000000E+000 -0.366673E-002
  0.431034E+000  0.000000E+000  0.517241E-001 -0.880019E-012  0.000000E+000 -0.366673E-002
  0.465517E+000  0.000000E+000  0.517241E-001 -0.505079E-012  0.000000E+000 -0.366673E-002
  0.500000E+000  0.000000E+000  0.517241E-001 -0.498469E-013  0.000000E+000 -0.366673E-002
  0.534483E+000  0.000000E+000  0.517241E-001 -0.770202E-013  0.000000E+000 -0.366673E-002
  0.568966E+000  0.000000E+000  0.517241E-001 -0.201091E-012  0.000000E+000 -0.366673E-002
  0.603448E+000  0.000000E+000  0.517241E-001 -0.527598E-012  0.000000E+000 -0.366673E-002
  0.637931E+000  0.000000E+000  0.517241E-001 -0.119470E-011  0.000000E+000 -0.366673E-002
  0.672414E+000  0.000000E+000  0.517241E-001 -0.150914E-011  0.000000E+000 -0.366673E-002
  0.706897E+000  0.000000E+000  0.517241E-001 -0.144894E-011  0.000000E+000 -0.366673E-002
  0.741379E+000  0.000000E+000  0.517241E-001 -0.139740E-011  0.000000E+000 -0.366673E-002
  0.775862E+000  0.000000E+000  0.517241E-001 -0.120773E-011  0.000000E+000 -0.366673E-002
  0.810345E+000  0.000000E+000  0.517241E-001 -0.960638E-012  0.000000E+000 -0.366673E-002
  0.844828E+000  0.000000E+000  0.517241E-001 -0.897412E-012  0.000000E+000 -0.366673E-002
  0.879310E+000  0.000000E+000  0.517241E-001 -0.834866E-012  0.000000E+000 -0.366673E-002
  0.913793E+000  0.000000E+000  0.517241E-001 -0.716592E-012  0.000000E+000 -0.366673E-002
  0.948276E+000  0.000000E+000  0.517241E-001 -0.567469E-012  0.000000E+000 -0.366673E-002
  0.991379E+000  0.000000E+000  0.517241E-001 -0.432812E-012  0.000000E+000 -0.366673E-002
  0.172414E-001  0.000000E+000  0.862069E-001 -0.135504E-011  0.000000E+000 -0.403697E-002
  0.517241E-001  0.000000E+000  0.862069E-001 -0.167011E-011  0.000000E+000 -0.403697E-002
  0.862069E-001  0.000000E+000  0.862069E-001 -0.111488E-011  0.000000E+000 -0.403697E-002
  0.120690E+000  0.000000E+000  0.862069E-001 -0.153559E-011  0.000000E+000 -0.403697E-002
  0.155172E+000  0.000000E+000  0.862069E-001 -0.211884E-011  0.000000E+000 -0.403697E-002
  0.189655E+000  0.000000E+000  0.862069E-001 -0.257928E-011  0.000000E+000 -0.403697E-002
  0.224138E+000  0.000000E+000  0.862069E-001 -0.294745E-011  0.000000E+000 -0.403697E-002
  0.258621E+000  0.000000E+000  0.862069E-001 -0.331220E-011  0.000000E+000 -0.403697E-002
  0.293103E+000  0.000000E+000  0.862069E-001 -0.409675E-011  0.000000E+000 -0.403697E-002
  0.327586E+000  0.000000E+000  0.862069E-001 -0.401816E-011  0.000000E+000 -0.403697E-002
  0.362069E+000  0.000000E+000  0.862069E-001 -0.427080E-011  0.000000E+000 -0.403697E-002
  0.396552E+000  0.000000E+000  0.862069E-001 -0.363733E-011  0.000000E+000 -0.403697E-002
  0.431034E+000  0.000000E+000  0.862069E-001 -0.264284E-011  0.000000E+000 -0.403697E-002
  0.465517E+000  0.000000E+000  0.862069E-001 -0.166795E-011  0.000000E+000 -0.403697E-002
  0.500000E+000  0.000000E+000  0.862069E-001 -0.408664E-012  0.000000E+000 -0.403697E-002
  0.534483E+000  0.000000E+000  0.862069E-001 -0.510000E-012  0.000000E+000 -0.403697E-002
  0.568966E+000  0.000000E+000  0.862069E-001 -0.108732E-011  0.000000E+000 -0.403697E-002
  0.603448E+000  0.000000E+000  0.862069E-001 -0.193171E-011  0.000000E+000 -0.403697E-002
  0.637931E+000  0.000000E+000  0.862069E-001 -0.352481E-011  0.000000E+000 -0.403697E-002
  0.672414E+000  0.000000E+000  0.862069E-001 -0.436530E-011  0.000000E+000 -0.403697E-002
  0.706897E+000  0.000000E+000  0.862069E-001 -0.417538E-011  0.000000E+000 -0.403697E-002
  0.741379E+000  0.000000E+000  0.862069E-001 -0.396440E-011  0.000000E+000 -0.403697E-002
  0.775862E+000  0.000000E+000  0.862069E-001 -0.360779E-011  0.000000E+000 -0.403697E-002
  0.810345E+000  0.000000E+000  0.862069E-001 -0.293670E-011  0.000000E+000 -0.403697E-002
  0.844828E+000  0.000000E+000  0.862069E-001 -0.269320E-011  0.000000E+000 -0.403697E-002
  0.879310E+000  0.000000E+000  0.862069E-001 -0.244755E-011  0.000000E+000 -0.403697E-002
  0.913793E+000  0.000000E+000  0.862069E-001 -0.206227E-011  0.000000E+000 -0.403697E-002
  0.948276E+000  0.000000E+000  0.862069E-001 -0.160573E-011  0.000000E+000 -0.403697E-002
  0.991379E+000  0.000000E+000  0.862069E-001 -0.104310E-011  0.000000E+000 -0.403697E-002
  0.172414E-001  0.000000E+000  0.120690E+000 -0.205296E-011  0.000000E+000 -0.450009E-002
  0.517241E-001  0.000000E+000  0.120690E+000 -0.289771E-011  0.000000E+000 -0.450009E-002
  0.862069E-001  0.000000E+000  0.120690E+000 -0.251502E-011  0.000000E+000 -0.450009E-002
  0.120690E+000  0.000000E+000  0.120690E+000 -0.346304E-011  0.000000E+000 -0.450009E-002
  0.155172E+000  0.000000E+000  0.120690E+000 -0.458981E-011  0.000000E+000 -0.450009E-002
  0.189655E+000  0.000000E+000  0.120690E+000 -0.552373E-011  0.000000E+000 -0.450009E-002
  0.224138E+000  0.000000E+000  0.120690E+000 -0.633820E-011  0.000000E+000 -0.450009E-002
  0.258621E+000  0.000000E+000  0.120690E+000 -0.702133E-011  0.000000E+000 -0.450009E-002
  0.293103E+000  0.000000E+000  0.120690E+000 -0.857822E-011  0.000000E+000 -0.450009E-002
  0.327586E+000  0.000000E+000  0.120690E+000 -0.842638E-011  0.000000E+000 -0.450009E-002
  0.362069E+000  0.000000E+000  0.120690E+000 -0.851007E-011  0.000000E+000 -0.450009E-002
  0.396552E+000  0.000000E+000  0.120690E+000 -0.729162E-011  0.000000E+000 -0.450009E-002
  0.431034E+000  0.000000E+000  0.120690E+000 -0.545745E-011  0.000000E+000 -0.450009E-002
  0.465517E+000  0.000000E+000  0.120690E+000 -0.380192E-011  0.000000E+000 -0.450009E-002
  0.500000E+000  0.000000E+000  0.120690E+000 -0.153575E-011  0.000000E+000 -0.450009E-002
  0.534483E+000  0.000000E+000  0.120690E+000 -0.175031E-011  0.000000E+000 -0.450009E-002
  0.568966E+000  0.000000E+000  0.120690E+000 -0.328490E-011  0.000000E+000 -0.450009E-002
  0.603448E+000  0.000000E+000  0.120690E+000 -0.479868E-011  0.000000E+000 -0.450009E-002
  0.637931E+000  0.000000E+000  0.120690E+000 -0.721685E-011  0.000000E+000 -0.450009E-002
  0.672414E+000  0.000000E+000  0.120690E+000 -0.872322E-011  0.000000E+000 -0.450009E-002
  0.706897E+000  0.000000E+000  0.120690E+000 -0.846639E-011  0.000000E+000 -0.450009E-002
  0.741379E+000  0.000000E+000  0.120690E+000 -0.786625E-011  0.000000E+000 -0.450009E-002
  0.775862E+000  0.000000E+000  0.120690E+000 -0.748576E-011  0.000000E+000 -0.450009E-002
  0.810345E+000  0.000000E+000  0.120690E+000 -0.636259E-011  0.000000E+000 -0.450009E-002
  0.844828E+000  0.000000E+000  0.120690E+000 -0.575803E-011  0.000000E+000 -0.450009E-002
  0.879310E+000  0.000000E+000  0.120690E+000 -0.510175E-011  0.000000E+000 -0.450009E-002
  0.913793E+000  0.000000E+000  0.120690E+000 -0.420878E-011  0.000000E+000 -0.450009E-002
  0.948276E+000  0.000000E+000  0.120690E+000 -0.322944E-011  0.000000E+000 -0.450009E-002
  0.991379E+000  0.000000E+000  0.120690E+000 -0.182146E-011  0.000000E+000 -0.450009E-002
  0.172414E-001  0.000000E+000  0.155172E+000 -0.249387E-011  0.000000E+000 -0.502048E-002
  0.517241E-001  0.000000E+000  0.155172E+000 -0.441076E-011  0.000000E+000 -0.502048E-002
  0.862069E-001  0.000000E+000  0.155172E+000 -0.481458E-011  0.000000E+000 -0.502048E-002
  0.120690E+000  0.000000E+000  0.155172E+000 -0.656784E-011  0.000000E+000 -0.502048E-002
  0.155172E+000  0.000000E+000  0.155172E+000 -0.839012E-011  0.000000E+000 -0.502048E-002
  0.189655E+000  0.000000E+000  0.155172E+000 -0.995162E-011  0.000000E+000 -0.502048E-002
  0.224138E+000  0.000000E+000  0.155172E+000 -0.114259E-010  0.000000E+000 -0.502048E-002
  0.258621E+000  0.000000E+000  0.155172E+000 -0.124345E-010  0.000000E+000 -0.502048E-002
  0.293103E+000  0.000000E+000  0.155172E+000 -0.146913E-010  0.000000E+000 -0.502048E-002
  0.327586E+000  0.000000E+000  0.155172E+000 -0.144510E-010  0.000000E+000 -0.502048E-002
  0.362069E+000  0.000000E+000  0.155172E+000 -0.140158E-010  0.000000E+000 -0.502048E-002
  0.396552E+000  0.000000E+000  0.155172E+000 -0.120475E-010  0.000000E+000 -0.502048E-002
  0.431034E+000  0.000000E+000  0.155172E+000 -0.925314E-011  0.000000E+000 -0.502048E-002
  0.465517E+000  0.000000E+000  0.155172E+000 -0.704400E-011  0.000000E+000 -0.502048E-002
  0.500000E+000  0.000000E+000  0.155172E+000 -0.399863E-011  0.000000E+000 -0.502048E-002
  0.534483E+000  0.000000E+000  0.155172E+000 -0.432762E-011  0.000000E+000 -0.502048E-002
  0.568966E+000  0.000000E+000  0.155172E+000 -0.707898E-011  0.000000E+000 -0.502048E-002
  0.603448E+000  0.000000E+000  0.155172E+000 -0.934834E-011  0.000000E+000 -0.502048E-002
  0.637931E+000  0.000000E+000  0.155172E+000 -0.122283E-010  0.000000E+000 -0.502048E-002
  0.672414E+000  0.000000E+000  0.155172E+000 -0.143403E-010  0.000000E+000 -0.502048E-002
  0.706897E+000  0.000000E+000  0.155172E+000 -0.143963E-010  0.000000E+000 -0.502048E-002
  0.741379E+000  0.000000E+000  0.155172E+000 -0.132337E-010  0.000000E+000 -0.502048E-002
  0.775862E+000  0.000000E+000  0.155172E+000 -0.128653E-010  0.000000E+000 -0.502048E-002
  0.810345E+000  0.000000E+000  0.155172E+000 -0.114666E-010  0.000000E+000 -0.502048E-002
  0.844828E+000  0.000000E+000  0.155172E+000 -0.103471E-010  0.000000E+000 -0.502048E-002
  0.879310E+000  0.000000E+000  0.155172E+000 -0.899676E-011  0.000000E+000 -0.502048E-002
  0.913793E+000  0.000000E+000  0.155172E+000 -0.728046E-011  0.000000E+000 -0.502048E-002
  0.948276E+000  0.000000E+000  0.155172E+000 -0.548081E-011  0.000000E+000 -0.502048E-002
  0.991379E+000  0.000000E+000  0.155172E+000 -0.291956E-011  0.000000E+000 -0.502048E-002
  0.172414E-001  0.000000E+000  0.189655E+000 -0.298349E-011  0.000000E+000 -0.557575E-002
  0.517241E-001  0.000000E+000  0.189655E+000 -0.648668E-011  0.000000E+000 -0.557575E-002
  0.862069E-001  0.000000E+000  0.189655E+000 -0.827620E-011  0.000000E+000 -0.557575E-002
  0.120690E+000  0.000000E+000  0.189655E+000 -0.111276E-010  0.000000E+000 -0.557575E-002
  0.155172E+000  0.000000E+000  0.189655E+000 -0.138085E-010  0.000000E+000 -0.557575E-002
  0.189655E+000  0.000000E+000  0.189655E+000 -0.161312E-010  0.000000E+000 -0.557575E-002
  0.224138E+000  0.000000E+000  0.189655E+000 -0.184240E-010  0.000000E+000 -0.557575E-002
  0.258621E+000  0.000000E+000  0.189655E+000 -0.197270E-010  0.000000E+000 -0.557575E-002
  0.293103E+000  0.000000E+000  0.189655E+000 -0.222786E-010  0.000000E+000 -0.557575E-002
  0.327586E+000  0.000000E+000  0.189655E+000 -0.218798E-010  0.000000E+000 -0.557575E-002
  0.362069E+000  0.000000E+000  0.189655E+000 -0.206758E-010  0.000000E+000 -0.557575E-002
  0.396552E+000  0.000000E+000  0.189655E+000 -0.178511E-010  0.000000E+000 -0.557575E-002
  0.431034E+000  0.000000E+000  0.189655E+000 -0.140547E-010  0.000000E+000 -0.557575E-002
  0.465517E+000  0.000000E+000  0.189655E+000 -0.115033E-010  0.000000E+000 -0.557575E-002
  0.500000E+000  0.000000E+000  0.189655E+000 -0.823705E-011  0.000000E+000 -0.557575E-002
  0.534483E+000  0.000000E+000  0.189655E+000 -0.868892E-011  0.000000E+000 -0.557575E-002
  0.568966E+000  0.000000E+000  0.189655E+000 -0.124777E-010  0.000000E+000 -0.557575E-002
  0.603448E+000  0.000000E+000  0.189655E+000 -0.155310E-010  0.000000E+000 -0.557575E-002
  0.637931E+000  0.000000E+000  0.189655E+000 -0.186439E-010  0.000000E+000 -0.557575E-002
  0.672414E+000  0.000000E+000  0.189655E+000 -0.211154E-010  0.000000E+000 -0.557575E-002
  0.706897E+000  0.000000E+000  0.189655E+000 -0.218951E-010  0.000000E+000 -0.557575E-002
  0.741379E+000  0.000000E+000  0.189655E+000 -0.204205E-010  0.000000E+000 -0.557575E-002
  0.775862E+000  0.000000E+000  0.189655E+000 -0.199759E-010  0.000000E+000 -0.557575E-002
  0.810345E+000  0.000000E+000  0.189655E+000 -0.184496E-010  0.000000E+000 -0.557575E-002
  0.844828E+000  0.000000E+000  0.189655E+000 -0.167097E-010  0.000000E+000 -0.557575E-002
  0.879310E+000  0.000000E+000  0.189655E+000 -0.144030E-010  0.000000E+000 -0.557575E-002
  0.913793E+000  0.000000E+000  0.189655E+000 -0.115406E-010  0.000000E+000 -0.557575E-002
  0.948276E+000  0.000000E+000  0.189655E+000 -0.857995E-011  0.000000E+000 -0.557575E-002
  0.991379E+000  0.000000E+000  0.189655E+000 -0.458459E-011  0.000000E+000 -0.557575E-002
  0.172414E-001  0.000000E+000  0.224138E+000 -0.410098E-011  0.000000E+000 -0.615084E-002
  0.517241E-001  0.000000E+000  0.224138E+000 -0.945819E-011  0.000000E+000 -0.615084E-002
  0.862069E-001  0.000000E+000  0.224138E+000 -0.130690E-010  0.000000E+000 -0.615084E-002
  0.120690E+000  0.000000E+000  0.224138E+000 -0.173174E-010  0.000000E+000 -0.615084E-002
  0.155172E+000  0.000000E+000  0.224138E+000 -0.210463E-010  0.000000E+000 -0.615084E-002
  0.189655E+000  0.000000E+000  0.224138E+000 -0.242396E-010  0.000000E+000 -0.615084E-002
  0.224138E+000  0.000000E+000  0.224138E+000 -0.273749E-010  0.000000E+000 -0.615084E-002
  0.258621E+000  0.000000E+000  0.224138E+000 -0.289352E-010  0.000000E+000 -0.615084E-002
  0.293103E+000  0.000000E+000  0.224138E+000 -0.312522E-010  0.000000E+000 -0.615084E-002
  0.327586E+000  0.000000E+000  0.224138E+000 -0.305378E-010  0.000000E+000 -0.615084E-002
  0.362069E+000  0.000000E+000  0.224138E+000 -0.284582E-010  0.000000E+000 -0.615084E-002
  0.396552E+000  0.000000E+000  0.224138E+000 -0.247689E-010  0.000000E+000 -0.615084E-002
  0.431034E+000  0.000000E+000  0.224138E+000 -0.200115E-010  0.000000E+000 -0.615084E-002
  0.465517E+000  0.000000E+000  0.224138E+000 -0.173137E-010  0.000000E+000 -0.615084E-002
  0.500000E+000  0.000000E+000  0.224138E+000 -0.144392E-010  0.000000E+000 -0.615084E-002
  0.534483E+000  0.000000E+000  0.224138E+000 -0.150201E-010  0.000000E+000 -0.615084E-002
  0.568966E+000  0.000000E+000  0.224138E+000 -0.193851E-010  0.000000E+000 -0.615084E-002
  0.603448E+000  0.000000E+000  0.224138E+000 -0.231817E-010  0.000000E+000 -0.615084E-002
  0.637931E+000  0.000000E+000  0.224138E+000 -0.266154E-010  0.000000E+000 -0.615084E-002
  0.672414E+000  0.000000E+000  0.224138E+000 -0.292345E-010  0.000000E+000 -0.615084E-002
  0.706897E+000  0.000000E+000  0.224138E+000 -0.308448E-010  0.000000E+000 -0.615084E-002
  0.741379E+000  0.000000E+000  0.224138E+000 -0.296709E-010  0.000000E+000 -0.615084E-002
  0.775862E+000  0.000000E+000  0.224138E+000 -0.291364E-010  0.000000E+000 -0.615084E-002
  0.810345E+000  0.000000E+000  0.224138E+000 -0.274792E-010  0.000000E+000 -0.615084E-002
  0.844828E+000  0.000000E+000  0.224138E+000 -0.250105E-010  0.000000E+000 -0.615084E-002
  0.879310E+000  0.000000E+000  0.224138E+000 -0.215357E-010  0.000000E+000 -0.615084E-002
  0.913793E+000  0.000000E+000  0.224138E+000 -0.172525E-010  0.000000E+000 -0.615084E-002
  0.948276E+000  0.000000E+000  0.224138E+000 -0.128128E-010  0.000000E+000 -0.615084E-002
  0.991379E+000  0.000000E+000  0.224138E+000 -0.699716E-011  0.000000E+000 -0.615084E-002
  0.172414E-001  0.000000E+000  0.258621E+000 -0.603495E-011  0.000000E+000 -0.673530E-002
  0.517241E-001  0.000000E+000  0.258621E+000 -0.135377E-010  0.000000E+000 -0.673530E-002
  0.862069E-001  0.000000E+000  0.258621E+000 -0.192278E-010  0.000000E+000 -0.673530E-002
  0.120690E+000  0.000000E+000  0.258621E+000 -0.251594E-010  0.000000E+000 -0.673530E-002
  0.155172E+000  0.000000E+000  0.258621E+000 -0.301516E-010  0.000000E+000 -0.673530E-002
  0.189655E+000  0.000000E+000  0.258621E+000 -0.343078E-010  0.000000E+000 -0.673530E-002
  0.224138E+000  0.000000E+000  0.258621E+000 -0.381735E-010  0.000000E+000 -0.673530E-002
  0.258621E+000  0.000000E+000  0.258621E+000 -0.399538E-010  0.000000E+000 -0.673530E-002
  0.293103E+000  0.000000E+000  0.258621E+000 -0.416095E-010  0.000000E+000 -0.673530E-002
  0.327586E+000  0.000000E+000  0.258621E+000 -0.403645E-010  0.000000E+000 -0.673530E-002
  0.362069E+000  0.000000E+000  0.258621E+000 -0.374118E-010  0.000000E+000 -0.673530E-002
  0.396552E+000  0.000000E+000  0.258621E+000 -0.329604E-010  0.000000E+000 -0.673530E-002
  0.431034E+000  0.000000E+000  0.258621E+000 -0.273638E-010  0.000000E+000 -0.673530E-002
  0.465517E+000  0.000000E+000  0.258621E+000 -0.245908E-010  0.000000E+000 -0.673530E-002
  0.500000E+000  0.000000E+000  0.258621E+000 -0.225222E-010  0.000000E+000 -0.673530E-002
  0.534483E+000  0.000000E+000  0.258621E+000 -0.232502E-010  0.000000E+000 -0.673530E-002
  0.568966E+000  0.000000E+000  0.258621E+000 -0.277189E-010  0.000000E+000 -0.673530E-002
  0.603448E+000  0.000000E+000  0.258621E+000 -0.321583E-010  0.000000E+000 -0.673530E-002
  0.637931E+000  0.000000E+000  0.258621E+000 -0.361641E-010  0.000000E+000 -0.673530E-002
  0.672414E+000  0.000000E+000  0.258621E+000 -0.390263E-010  0.000000E+000 -0.673530E-002
  0.706897E+000  0.000000E+000  0.258621E+000 -0.414050E-010  0.000000E+000 -0.673530E-002
  0.741379E+000  0.000000E+000  0.258621E+000 -0.410609E-010  0.000000E+000 -0.673530E-002
  0.775862E+000  0.000000E+000  0.258621E+000 -0.405229E-010  0.000000E+000 -0.673530E-002
  0.810345E+000  0.000000E+000  0.258621E+000 -0.386122E-010  0.000000E+000 -0.673530E-002
  0.844828E+000  0.000000E+000  0.258621E+000 -0.352698E-010  0.000000E+000 -0.673530E-002
  0.879310E+000  0.000000E+000  0.258621E+000 -0.304352E-010  0.000000E+000 -0.673530E-002
  0.913793E+000  0.000000E+000  0.258621E+000 -0.244548E-010  0.000000E+000 -0.673530E-002
  0.948276E+000  0.000000E+000  0.258621E+000 -0.181487E-010  0.000000E+000 -0.673530E-002
  0.991379E+000  0.000000E+000  0.258621E+000 -0.101066E-010  0.000000E+000 -0.673530E-002
  0.172414E-001  0.000000E+000  0.293103E+000 -0.860372E-011  0.000000E+000 -0.732186E-002
  0.517241E-001  0.000000E+000  0.293103E+000 -0.187422E-010  0.000000E+000 -0.732186E-002
  0.862069E-001  0.000000E+000  0.293103E+000 -0.266415E-010  0.000000E+000 -0.732186E-002
  0.120690E+000  0.000000E+000  0.293103E+000 -0.345157E-010  0.000000E+000 -0.732186E-002
  0.155172E+000  0.000000E+000  0.293103E+000 -0.410036E-010  0.000000E+000 -0.732186E-002
  0.189655E+000  0.000000E+000  0.293103E+000 -0.462197E-010  0.000000E+000 -0.732186E-002
  0.224138E+000  0.000000E+000  0.293103E+000 -0.506429E-010  0.000000E+000 -0.732186E-002
  0.258621E+000  0.000000E+000  0.293103E+000 -0.526133E-010  0.000000E+000 -0.732186E-002
  0.293103E+000  0.000000E+000  0.293103E+000 -0.534125E-010  0.000000E+000 -0.732186E-002
  0.327586E+000  0.000000E+000  0.293103E+000 -0.514116E-010  0.000000E+000 -0.732186E-002
  0.362069E+000  0.000000E+000  0.293103E+000 -0.476037E-010  0.000000E+000 -0.732186E-002
  0.396552E+000  0.000000E+000  0.293103E+000 -0.425801E-010  0.000000E+000 -0.732186E-002
  0.431034E+000  0.000000E+000  0.293103E+000 -0.364001E-010  0.000000E+000 -0.732186E-002
  0.465517E+000  0.000000E+000  0.293103E+000 -0.333961E-010  0.000000E+000 -0.732186E-002
  0.500000E+000  0.000000E+000  0.293103E+000 -0.321625E-010  0.000000E+000 -0.732186E-002
  0.534483E+000  0.000000E+000  0.293103E+000 -0.331324E-010  0.000000E+000 -0.732186E-002
  0.568966E+000  0.000000E+000  0.293103E+000 -0.374509E-010  0.000000E+000 -0.732186E-002
  0.603448E+000  0.000000E+000  0.293103E+000 -0.424084E-010  0.000000E+000 -0.732186E-002
  0.637931E+000  0.000000E+000  0.293103E+000 -0.472293E-010  0.000000E+000 -0.732186E-002
  0.672414E+000  0.000000E+000  0.293103E+000 -0.507443E-010  0.000000E+000 -0.732186E-002
  0.706897E+000  0.000000E+000  0.293103E+000 -0.538845E-010  0.000000E+000 -0.732186E-002
  0.741379E+000  0.000000E+000  0.293103E+000 -0.545949E-010  0.000000E+000 -0.732186E-002
  0.775862E+000  0.000000E+000  0.293103E+000 -0.541164E-010  0.000000E+000 -0.732186E-002
  0.810345E+000  0.000000E+000  0.293103E+000 -0.517645E-010  0.000000E+000 -0.732186E-002
  0.844828E+000  0.000000E+000  0.293103E+000 -0.473543E-010  0.000000E+000 -0.732186E-002
  0.879310E+000  0.000000E+000  0.293103E+000 -0.409519E-010  0.000000E+000 -0.732186E-002
  0.913793E+000  0.000000E+000  0.293103E+000 -0.329487E-010  0.000000E+000 -0.732186E-002
  0.948276E+000  0.000000E+000  0.293103E+000 -0.242911E-010  0.000000E+000 -0.732186E-002
  0.991379E+000  0.000000E+000  0.293103E+000 -0.136417E-010  0.000000E+000 -0.732186E-002
  0.172414E-001  0.000000E+000  0.327586E+000 -0.116840E-010  0.000000E+000 -0.790561E-002
  0.517241E-001  0.000000E+000  0.327586E+000 -0.249418E-010  0.000000E+000 -0.790561E-002
  0.862069E-001  0.000000E+000  0.327586E+000 -0.350869E-010  0.000000E+000 -0.790561E-002
  0.120690E+000  0.000000E+000  0.327586E+000 -0.451355E-010  0.000000E+000 -0.790561E-002
  0.155172E+000  0.000000E+000  0.327586E+000 -0.533608E-010  0.000000E+000 -0.790561E-002
  0.189655E+000  0.000000E+000  0.327586E+000 -0.597743E-010  0.000000E+000 -0.790561E-002
  0.224138E+000  0.000000E+000  0.327586E+000 -0.646108E-010  0.000000E+000 -0.790561E-002
  0.258621E+000  0.000000E+000  0.327586E+000 -0.667452E-010  0.000000E+000 -0.790561E-002
  0.293103E+000  0.000000E+000  0.327586E+000 -0.667444E-010  0.000000E+000 -0.790561E-002
  0.327586E+000  0.000000E+000  0.327586E+000 -0.638264E-010  0.000000E+000 -0.790561E-002
  0.362069E+000  0.000000E+000  0.327586E+000 -0.591052E-010  0.000000E+000 -0.790561E-002
  0.396552E+000  0.000000E+000  0.327586E+000 -0.536604E-010  0.000000E+000 -0.790561E-002
  0.431034E+000  0.000000E+000  0.327586E+000 -0.471862E-010  0.000000E+000 -0.790561E-002
  0.465517E+000  0.000000E+000  0.327586E+000 -0.436862E-010  0.000000E+000 -0.790561E-002
  0.500000E+000  0.000000E+000  0.327586E+000 -0.429658E-010  0.000000E+000 -0.790561E-002
  0.534483E+000  0.000000E+000  0.327586E+000 -0.443089E-010  0.000000E+000 -0.790561E-002
  0.568966E+000  0.000000E+000  0.327586E+000 -0.485506E-010  0.000000E+000 -0.790561E-002
  0.603448E+000  0.000000E+000  0.327586E+000 -0.539606E-010  0.000000E+000 -0.790561E-002
  0.637931E+000  0.000000E+000  0.327586E+000 -0.597925E-010  0.000000E+000 -0.790561E-002
  0.672414E+000  0.000000E+000  0.327586E+000 -0.644962E-010  0.000000E+000 -0.790561E-002
  0.706897E+000  0.000000E+000  0.327586E+000 -0.685045E-010  0.000000E+000 -0.790561E-002
  0.741379E+000  0.000000E+000  0.327586E+000 -0.701988E-010  0.000000E+000 -0.790561E-002
  0.775862E+000  0.000000E+000  0.327586E+000 -0.697595E-010  0.000000E+000 -0.790561E-002
  0.810345E+000  0.000000E+000  0.327586E+000 -0.667566E-010  0.000000E+000 -0.790561E-002
  0.844828E+000  0.000000E+000  0.327586E+000 -0.610186E-010  0.000000E+000 -0.790561E-002
  0.879310E+000  0.000000E+000  0.327586E+000 -0.528128E-010  0.000000E+000 -0.790561E-002
  0.913793E+000  0.000000E+000  0.327586E+000 -0.424167E-010  0.000000E+000 -0.790561E-002
  0.948276E+000  0.000000E+000  0.327586E+000 -0.309414E-010  0.000000E+000 -0.790561E-002
  0.991379E+000  0.000000E+000  0.327586E+000 -0.173249E-010  0.000000E+000 -0.790561E-002
  0.172414E-001  0.000000E+000  0.362069E+000 -0.152013E-010  0.000000E+000 -0.848346E-002
  0.517241E-001  0.000000E+000  0.362069E+000 -0.319515E-010  0.000000E+000 -0.848346E-002
  0.862069E-001  0.000000E+000  0.362069E+000 -0.443073E-010  0.000000E+000 -0.848346E-002
  0.120690E+000  0.000000E+000  0.362069E+000 -0.567520E-010  0.000000E+000 -0.848346E-002
  0.155172E+000  0.000000E+000  0.362069E+000 -0.669537E-010  0.000000E+000 -0.848346E-002
  0.189655E+000  0.000000E+000  0.362069E+000 -0.747802E-010  0.000000E+000 -0.848346E-002
  0.224138E+000  0.000000E+000  0.362069E+000 -0.799920E-010  0.000000E+000 -0.848346E-002
  0.258621E+000  0.000000E+000  0.362069E+000 -0.822162E-010  0.000000E+000 -0.848346E-002
  0.293103E+000  0.000000E+000  0.362069E+000 -0.816016E-010  0.000000E+000 -0.848346E-002
  0.327586E+000  0.000000E+000  0.362069E+000 -0.777716E-010  0.000000E+000 -0.848346E-002
  0.362069E+000  0.000000E+000  0.362069E+000 -0.720101E-010  0.000000E+000 -0.848346E-002
  0.396552E+000  0.000000E+000  0.362069E+000 -0.660502E-010  0.000000E+000 -0.848346E-002
  0.431034E+000  0.000000E+000  0.362069E+000 -0.594100E-010  0.000000E+000 -0.848346E-002
  0.465517E+000  0.000000E+000  0.362069E+000 -0.552499E-010  0.000000E+000 -0.848346E-002
  0.500000E+000  0.000000E+000  0.362069E+000 -0.545759E-010  0.000000E+000 -0.848346E-002
  0.534483E+000  0.000000E+000  0.362069E+000 -0.563304E-010  0.000000E+000 -0.848346E-002
  0.568966E+000  0.000000E+000  0.362069E+000 -0.608432E-010  0.000000E+000 -0.848346E-002
  0.603448E+000  0.000000E+000  0.362069E+000 -0.668906E-010  0.000000E+000 -0.848346E-002
  0.637931E+000  0.000000E+000  0.362069E+000 -0.738910E-010  0.000000E+000 -0.848346E-002
  0.672414E+000  0.000000E+000  0.362069E+000 -0.801944E-010  0.000000E+000 -0.848346E-002
  0.706897E+000  0.000000E+000  0.362069E+000 -0.852553E-010  0.000000E+000 -0.848346E-002
  0.741379E+000  0.000000E+000  0.362069E+000 -0.877561E-010  0.000000E+000 -0.848346E-002
  0.775862E+000  0.000000E+000  0.362069E+000 -0.872653E-010  0.000000E+000 -0.848346E-002
  0.810345E+000  0.000000E+000  0.362069E+000 -0.833917E-010  0.000000E+000 -0.848346E-002
  0.844828E+000  0.000000E+000  0.362069E+000 -0.759615E-010  0.000000E+000 -0.848346E-002
  0.879310E+000  0.000000E+000  0.362069E+000 -0.657042E-010  0.000000E+000 -0.848346E-002
  0.913793E+000  0.000000E+000  0.362069E+000 -0.525085E-010  0.000000E+000 -0.848346E-002
  0.948276E+000  0.000000E+000  0.362069E+000 -0.378866E-010  0.000000E+000 -0.848346E-002
  0.991379E+000  0.000000E+000  0.362069E+000 -0.210143E-010  0.000000E+000 -0.848346E-002
  0.172414E-001  0.000000E+000  0.396552E+000 -0.189757E-010  0.000000E+000 -0.905373E-002
  0.517241E-001  0.000000E+000  0.396552E+000 -0.395935E-010  0.000000E+000 -0.905373E-002
  0.862069E-001  0.000000E+000  0.396552E+000 -0.541379E-010  0.000000E+000 -0.905373E-002
  0.120690E+000  0.000000E+000  0.396552E+000 -0.692339E-010  0.000000E+000 -0.905373E-002
  0.155172E+000  0.000000E+000  0.396552E+000 -0.816122E-010  0.000000E+000 -0.905373E-002
  0.189655E+000  0.000000E+000  0.396552E+000 -0.911176E-010  0.000000E+000 -0.905373E-002
  0.224138E+000  0.000000E+000  0.396552E+000 -0.968737E-010  0.000000E+000 -0.905373E-002
  0.258621E+000  0.000000E+000  0.396552E+000 -0.989870E-010  0.000000E+000 -0.905373E-002