title = "dataset transp-updrld"
variables = "x", "y", "z", "vx", "vy", "vz"
zone t = "velocities, solution time =  1.500E+02 days        " i =   29, j =   29, k =    1,  f=point
  0.172414E-001  0.000000E+000  0.172414E-001 -0.750207E-014  0.000000E+000 -0.177967E-002
  0.517241E-001  0.000000E+000  0.172414E-001  0.624608E-015  0.000000E+000 -0.177967E-002
  0.862069E-001  0.000000E+000  0.172414E-001  0.107481E-013  0.000000E+000 -0.177967E-002
  0.120690E+000  0.000000E+000  0.172414E-001  0.211208E-013  0.000000E+000 -0.177967E-002
  0.155172E+000  0.000000E+000  0.172414E-001  0.292305E-013  0.000000E+000 -0.177967E-002
  0.189655E+000  0.000000E+000  0.172414E-001  0.370218E-013  0.000000E+000 -0.177967E-002
  0.224138E+000  0.000000E+000  0.172414E-001  0.459880E-013  0.000000E+000 -0.177967E-002
  0.258621E+000  0.000000E+000  0.172414E-001  0.513620E-013  0.000000E+000 -0.177967E-002
  0.293103E+000  0.000000E+000  0.172414E-001  0.579152E-013  0.000000E+000 -0.177967E-002
  0.327586E+000  0.000000E+000  0.172414E-001  0.659066E-013  0.000000E+000 -0.177967E-002
  0.362069E+000  0.000000E+000  0.172414E-001  0.697726E-013  0.000000E+000 -0.177967E-002
  0.396552E+000  0.000000E+000  0.172414E-001  0.725762E-013  0.000000E+000 -0.177967E-002
  0.431034E+000  0.000000E+000  0.172414E-001  0.768659E-013  0.000000E+000 -0.177967E-002
  0.465517E+000  0.000000E+000  0.172414E-001  0.800479E-013  0.000000E+000 -0.177967E-002
  0.500000E+000  0.000000E+000  0.172414E-001  0.819740E-013  0.000000E+000 -0.177967E-002
  0.534483E+000  0.000000E+000  0.172414E-001  0.819956E-013  0.000000E+000 -0.177967E-002
  0.568966E+000  0.000000E+000  0.172414E-001  0.807286E-013  0.000000E+000 -0.177967E-002
  0.603448E+000  0.000000E+000  0.172414E-001  0.790370E-013  0.000000E+000 -0.177967E-002
  0.637931E+000  0.000000E+000  0.172414E-001  0.764875E-013  0.000000E+000 -0.177967E-002
  0.672414E+000  0.000000E+000  0.172414E-001  0.725545E-013  0.000000E+000 -0.177967E-002
  0.706897E+000  0.000000E+000  0.172414E-001  0.676299E-013  0.000000E+000 -0.177967E-002
  0.741379E+000  0.000000E+000  0.172414E-001  0.616862E-013  0.000000E+000 -0.177967E-002
  0.775862E+000  0.000000E+000  0.172414E-001  0.545097E-013  0.000000E+000 -0.177967E-002
  0.810345E+000  0.000000E+000  0.172414E-001  0.462325E-013  0.000000E+000 -0.177967E-002
  0.844828E+000  0.000000E+000  0.172414E-001  0.372268E-013  0.000000E+000 -0.177967E-002
  0.879310E+000  0.000000E+000  0.172414E-001  0.275908E-013  0.000000E+000 -0.177967E-002
  0.913793E+000  0.000000E+000  0.172414E-001  0.172560E-013  0.000000E+000 -0.177967E-002
  0.948276E+000  0.000000E+000  0.172414E-001  0.615947E-014  0.000000E+000 -0.177967E-002
  0.991379E+000  0.000000E+000  0.172414E-001 -0.596385E-014  0.000000E+000 -0.177967E-002
  0.172414E-001  0.000000E+000  0.517241E-001 -0.356698E-013  0.000000E+000 -0.176908E-002
  0.517241E-001  0.000000E+000  0.517241E-001  0.378040E-014  0.000000E+000 -0.176908E-002
  0.862069E-001  0.000000E+000  0.517241E-001  0.567901E-013  0.000000E+000 -0.176908E-002
  0.120690E+000  0.000000E+000  0.517241E-001  0.111339E-012  0.000000E+000 -0.176908E-002
  0.155172E+000  0.000000E+000  0.517241E-001  0.154707E-012  0.000000E+000 -0.176908E-002
  0.189655E+000  0.000000E+000  0.517241E-001  0.194817E-012  0.000000E+000 -0.176908E-002
  0.224138E+000  0.000000E+000  0.517241E-001  0.242681E-012  0.000000E+000 -0.176908E-002
  0.258621E+000  0.000000E+000  0.517241E-001  0.272855E-012  0.000000E+000 -0.176908E-002
  0.293103E+000  0.000000E+000  0.517241E-001  0.306094E-012  0.000000E+000 -0.176908E-002
  0.327586E+000  0.000000E+000  0.517241E-001  0.347586E-012  0.000000E+000 -0.176908E-002
  0.362069E+000  0.000000E+000  0.517241E-001  0.370049E-012  0.000000E+000 -0.176908E-002
  0.396552E+000  0.000000E+000  0.517241E-001  0.385523E-012  0.000000E+000 -0.176908E-002
  0.431034E+000  0.000000E+000  0.517241E-001  0.407189E-012  0.000000E+000 -0.176908E-002
  0.465517E+000  0.000000E+000  0.517241E-001  0.423540E-012  0.000000E+000 -0.176908E-002
  0.500000E+000  0.000000E+000  0.517241E-001  0.433696E-012  0.000000E+000 -0.176908E-002
  0.534483E+000  0.000000E+000  0.517241E-001  0.434257E-012  0.000000E+000 -0.176908E-002
  0.568966E+000  0.000000E+000  0.517241E-001  0.427646E-012  0.000000E+000 -0.176908E-002
  0.603448E+000  0.000000E+000  0.517241E-001  0.418300E-012  0.000000E+000 -0.176908E-002
  0.637931E+000  0.000000E+000  0.517241E-001  0.404458E-012  0.000000E+000 -0.176908E-002
  0.672414E+000  0.000000E+000  0.517241E-001  0.383245E-012  0.000000E+000 -0.176908E-002
  0.706897E+000  0.000000E+000  0.517241E-001  0.356677E-012  0.000000E+000 -0.176908E-002
  0.741379E+000  0.000000E+000  0.517241E-001  0.324948E-012  0.000000E+000 -0.176908E-002
  0.775862E+000  0.000000E+000  0.517241E-001  0.286880E-012  0.000000E+000 -0.176908E-002
  0.810345E+000  0.000000E+000  0.517241E-001  0.243002E-012  0.000000E+000 -0.176908E-002
  0.844828E+000  0.000000E+000  0.517241E-001  0.195217E-012  0.000000E+000 -0.176908E-002
  0.879310E+000  0.000000E+000  0.517241E-001  0.144349E-012  0.000000E+000 -0.176908E-002
  0.913793E+000  0.000000E+000  0.517241E-001  0.901400E-013  0.000000E+000 -0.176908E-002
  0.948276E+000  0.000000E+000  0.517241E-001  0.327743E-013  0.000000E+000 -0.176908E-002
  0.991379E+000  0.000000E+000  0.517241E-001 -0.281152E-013  0.000000E+000 -0.176908E-002
  0.172414E-001  0.000000E+000  0.862069E-001 -0.798319E-013  0.000000E+000 -0.175082E-002
  0.517241E-001  0.000000E+000  0.862069E-001  0.108994E-013  0.000000E+000 -0.175082E-002
  0.862069E-001  0.000000E+000  0.862069E-001  0.144267E-012  0.000000E+000 -0.175082E-002
  0.120690E+000  0.000000E+000  0.862069E-001  0.280949E-012  0.000000E+000 -0.175082E-002
  0.155172E+000  0.000000E+000  0.862069E-001  0.393223E-012  0.000000E+000 -0.175082E-002
  0.189655E+000  0.000000E+000  0.862069E-001  0.491789E-012  0.000000E+000 -0.175082E-002
  0.224138E+000  0.000000E+000  0.862069E-001  0.613406E-012  0.000000E+000 -0.175082E-002
  0.258621E+000  0.000000E+000  0.862069E-001  0.696787E-012  0.000000E+000 -0.175082E-002
  0.293103E+000  0.000000E+000  0.862069E-001  0.777055E-012  0.000000E+000 -0.175082E-002
  0.327586E+000  0.000000E+000  0.862069E-001  0.878383E-012  0.000000E+000 -0.175082E-002
  0.362069E+000  0.000000E+000  0.862069E-001  0.942192E-012  0.000000E+000 -0.175082E-002
  0.396552E+000  0.000000E+000  0.862069E-001  0.985457E-012  0.000000E+000 -0.175082E-002
  0.431034E+000  0.000000E+000  0.862069E-001  0.103733E-011  0.000000E+000 -0.175082E-002
  0.465517E+000  0.000000E+000  0.862069E-001  0.107593E-011  0.000000E+000 -0.175082E-002
  0.500000E+000  0.000000E+000  0.862069E-001  0.110096E-011  0.000000E+000 -0.175082E-002
  0.534483E+000  0.000000E+000  0.862069E-001  0.110426E-011  0.000000E+000 -0.175082E-002
  0.568966E+000  0.000000E+000  0.862069E-001  0.108822E-011  0.000000E+000 -0.175082E-002
  0.603448E+000  0.000000E+000  0.862069E-001  0.106324E-011  0.000000E+000 -0.175082E-002
  0.637931E+000  0.000000E+000  0.862069E-001  0.102676E-011  0.000000E+000 -0.175082E-002
  0.672414E+000  0.000000E+000  0.862069E-001  0.971245E-012  0.000000E+000 -0.175082E-002
  0.706897E+000  0.000000E+000  0.862069E-001  0.901814E-012  0.000000E+000 -0.175082E-002
  0.741379E+000  0.000000E+000  0.862069E-001  0.820142E-012  0.000000E+000 -0.175082E-002
  0.775862E+000  0.000000E+000  0.862069E-001  0.723407E-012  0.000000E+000 -0.175082E-002
  0.810345E+000  0.000000E+000  0.862069E-001  0.611949E-012  0.000000E+000 -0.175082E-002
  0.844828E+000  0.000000E+000  0.862069E-001  0.490277E-012  0.000000E+000 -0.175082E-002
  0.879310E+000  0.000000E+000  0.862069E-001  0.361273E-012  0.000000E+000 -0.175082E-002
  0.913793E+000  0.000000E+000  0.862069E-001  0.225252E-012  0.000000E+000 -0.175082E-002
  0.948276E+000  0.000000E+000  0.862069E-001  0.839670E-013  0.000000E+000 -0.175082E-002
  0.991379E+000  0.000000E+000  0.862069E-001 -0.624963E-013  0.000000E+000 -0.175082E-002
  0.172414E-001  0.000000E+000  0.120690E+000 -0.129310E-012  0.000000E+000 -0.172726E-002
  0.517241E-001  0.000000E+000  0.120690E+000  0.183291E-013  0.000000E+000 -0.172726E-002
  0.862069E-001  0.000000E+000  0.120690E+000  0.256789E-012  0.000000E+000 -0.172726E-002
  0.120690E+000  0.000000E+000  0.120690E+000  0.496081E-012  0.000000E+000 -0.172726E-002
  0.155172E+000  0.000000E+000  0.120690E+000  0.699223E-012  0.000000E+000 -0.172726E-002
  0.189655E+000  0.000000E+000  0.120690E+000  0.870868E-012  0.000000E+000 -0.172726E-002
  0.224138E+000  0.000000E+000  0.120690E+000  0.108519E-011  0.000000E+000 -0.172726E-002
  0.258621E+000  0.000000E+000  0.120690E+000  0.124566E-011  0.000000E+000 -0.172726E-002
  0.293103E+000  0.000000E+000  0.120690E+000  0.138413E-011  0.000000E+000 -0.172726E-002
  0.327586E+000  0.000000E+000  0.120690E+000  0.155726E-011  0.000000E+000 -0.172726E-002
  0.362069E+000  0.000000E+000  0.120690E+000  0.168059E-011  0.000000E+000 -0.172726E-002
  0.396552E+000  0.000000E+000  0.120690E+000  0.176664E-011  0.000000E+000 -0.172726E-002
  0.431034E+000  0.000000E+000  0.120690E+000  0.185471E-011  0.000000E+000 -0.172726E-002
  0.465517E+000  0.000000E+000  0.120690E+000  0.191802E-011  0.000000E+000 -0.172726E-002
  0.500000E+000  0.000000E+000  0.120690E+000  0.196026E-011  0.000000E+000 -0.172726E-002
  0.534483E+000  0.000000E+000  0.120690E+000  0.196890E-011  0.000000E+000 -0.172726E-002
  0.568966E+000  0.000000E+000  0.120690E+000  0.194135E-011  0.000000E+000 -0.172726E-002
  0.603448E+000  0.000000E+000  0.120690E+000  0.189438E-011  0.000000E+000 -0.172726E-002
  0.637931E+000  0.000000E+000  0.120690E+000  0.182711E-011  0.000000E+000 -0.172726E-002
  0.672414E+000  0.000000E+000  0.120690E+000  0.172470E-011  0.000000E+000 -0.172726E-002
  0.706897E+000  0.000000E+000  0.120690E+000  0.159679E-011  0.000000E+000 -0.172726E-002
  0.741379E+000  0.000000E+000  0.120690E+000  0.144900E-011  0.000000E+000 -0.172726E-002
  0.775862E+000  0.000000E+000  0.120690E+000  0.127673E-011  0.000000E+000 -0.172726E-002
  0.810345E+000  0.000000E+000  0.120690E+000  0.107856E-011  0.000000E+000 -0.172726E-002
  0.844828E+000  0.000000E+000  0.120690E+000  0.861454E-012  0.000000E+000 -0.172726E-002
  0.879310E+000  0.000000E+000  0.120690E+000  0.631949E-012  0.000000E+000 -0.172726E-002
  0.913793E+000  0.000000E+000  0.120690E+000  0.392739E-012  0.000000E+000 -0.172726E-002
  0.948276E+000  0.000000E+000  0.120690E+000  0.149251E-012  0.000000E+000 -0.172726E-002
  0.991379E+000  0.000000E+000  0.120690E+000 -0.102134E-012  0.000000E+000 -0.172726E-002
  0.172414E-001  0.000000E+000  0.155172E+000 -0.187823E-012  0.000000E+000 -0.169964E-002
  0.517241E-001  0.000000E+000  0.155172E+000  0.157487E-013  0.000000E+000 -0.169964E-002
  0.862069E-001  0.000000E+000  0.155172E+000  0.378403E-012  0.000000E+000 -0.169964E-002
  0.120690E+000  0.000000E+000  0.155172E+000  0.730777E-012  0.000000E+000 -0.169964E-002
  0.155172E+000  0.000000E+000  0.155172E+000  0.103433E-011  0.000000E+000 -0.169964E-002
  0.189655E+000  0.000000E+000  0.155172E+000  0.128577E-011  0.000000E+000 -0.169964E-002
  0.224138E+000  0.000000E+000  0.155172E+000  0.159901E-011  0.000000E+000 -0.169964E-002
  0.258621E+000  0.000000E+000  0.155172E+000  0.185290E-011  0.000000E+000 -0.169964E-002
  0.293103E+000  0.000000E+000  0.155172E+000  0.205675E-011  0.000000E+000 -0.169964E-002
  0.327586E+000  0.000000E+000  0.155172E+000  0.230698E-011  0.000000E+000 -0.169964E-002
  0.362069E+000  0.000000E+000  0.155172E+000  0.249669E-011  0.000000E+000 -0.169964E-002
  0.396552E+000  0.000000E+000  0.155172E+000  0.263801E-011  0.000000E+000 -0.169964E-002
  0.431034E+000  0.000000E+000  0.155172E+000  0.276614E-011  0.000000E+000 -0.169964E-002
  0.465517E+000  0.000000E+000  0.155172E+000  0.285457E-011  0.000000E+000 -0.169964E-002
  0.500000E+000  0.000000E+000  0.155172E+000  0.291375E-011  0.000000E+000 -0.169964E-002
  0.534483E+000  0.000000E+000  0.155172E+000  0.292849E-011  0.000000E+000 -0.169964E-002
  0.568966E+000  0.000000E+000  0.155172E+000  0.288678E-011  0.000000E+000 -0.169964E-002
  0.603448E+000  0.000000E+000  0.155172E+000  0.281243E-011  0.000000E+000 -0.169964E-002
  0.637931E+000  0.000000E+000  0.155172E+000  0.271036E-011  0.000000E+000 -0.169964E-002
  0.672414E+000  0.000000E+000  0.155172E+000  0.255331E-011  0.000000E+000 -0.169964E-002
  0.706897E+000  0.000000E+000  0.155172E+000  0.235658E-011  0.000000E+000 -0.169964E-002
  0.741379E+000  0.000000E+000  0.155172E+000  0.213322E-011  0.000000E+000 -0.169964E-002
  0.775862E+000  0.000000E+000  0.155172E+000  0.187727E-011  0.000000E+000 -0.169964E-002
  0.810345E+000  0.000000E+000  0.155172E+000  0.158370E-011  0.000000E+000 -0.169964E-002
  0.844828E+000  0.000000E+000  0.155172E+000  0.126086E-011  0.000000E+000 -0.169964E-002
  0.879310E+000  0.000000E+000  0.155172E+000  0.920019E-012  0.000000E+000 -0.169964E-002
  0.913793E+000  0.000000E+000  0.155172E+000  0.567625E-012  0.000000E+000 -0.169964E-002
  0.948276E+000  0.000000E+000  0.155172E+000  0.215415E-012  0.000000E+000 -0.169964E-002
  0.991379E+000  0.000000E+000  0.155172E+000 -0.153176E-012  0.000000E+000 -0.169964E-002
  0.172414E-001  0.000000E+000  0.189655E+000 -0.262720E-012  0.000000E+000 -0.166860E-002
  0.517241E-001  0.000000E+000  0.189655E+000 -0.807987E-014  0.000000E+000 -0.166860E-002
  0.862069E-001  0.000000E+000  0.189655E+000  0.497201E-012  0.000000E+000 -0.166860E-002
  0.120690E+000  0.000000E+000  0.189655E+000  0.970491E-012  0.000000E+000 -0.166860E-002
  0.155172E+000  0.000000E+000  0.189655E+000  0.137840E-011  0.000000E+000 -0.166860E-002
  0.189655E+000  0.000000E+000  0.189655E+000  0.170862E-011  0.000000E+000 -0.166860E-002
  0.224138E+000  0.000000E+000  0.189655E+000  0.211893E-011  0.000000E+000 -0.166860E-002
  0.258621E+000  0.000000E+000  0.189655E+000  0.248088E-011  0.000000E+000 -0.166860E-002
  0.293103E+000  0.000000E+000  0.189655E+000  0.275337E-011  0.000000E+000 -0.166860E-002
  0.327586E+000  0.000000E+000  0.189655E+000  0.308600E-011  0.000000E+000 -0.166860E-002
  0.362069E+000  0.000000E+000  0.189655E+000  0.333946E-011  0.000000E+000 -0.166860E-002
  0.396552E+000  0.000000E+000  0.189655E+000  0.354559E-011  0.000000E+000 -0.166860E-002
  0.431034E+000  0.000000E+000  0.189655E+000  0.371812E-011  0.000000E+000 -0.166860E-002
  0.465517E+000  0.000000E+000  0.189655E+000  0.383214E-011  0.000000E+000 -0.166860E-002
  0.500000E+000  0.000000E+000  0.189655E+000  0.390751E-011  0.000000E+000 -0.166860E-002
  0.534483E+000  0.000000E+000  0.189655E+000  0.392884E-011  0.000000E+000 -0.166860E-002
  0.568966E+000  0.000000E+000  0.189655E+000  0.386889E-011  0.000000E+000 -0.166860E-002
  0.603448E+000  0.000000E+000  0.189655E+000  0.376010E-011  0.000000E+000 -0.166860E-002
  0.637931E+000  0.000000E+000  0.189655E+000  0.362228E-011  0.000000E+000 -0.166860E-002
  0.672414E+000  0.000000E+000  0.189655E+000  0.340710E-011  0.000000E+000 -0.166860E-002
  0.706897E+000  0.000000E+000  0.189655E+000  0.313439E-011  0.000000E+000 -0.166860E-002
  0.741379E+000  0.000000E+000  0.189655E+000  0.282951E-011  0.000000E+000 -0.166860E-002
  0.775862E+000  0.000000E+000  0.189655E+000  0.248657E-011  0.000000E+000 -0.166860E-002
  0.810345E+000  0.000000E+000  0.189655E+000  0.209490E-011  0.000000E+000 -0.166860E-002
  0.844828E+000  0.000000E+000  0.189655E+000  0.166241E-011  0.000000E+000 -0.166860E-002
  0.879310E+000  0.000000E+000  0.189655E+000  0.120547E-011  0.000000E+000 -0.166860E-002
  0.913793E+000  0.000000E+000  0.189655E+000  0.734303E-012  0.000000E+000 -0.166860E-002
  0.948276E+000  0.000000E+000  0.189655E+000  0.269789E-012  0.000000E+000 -0.166860E-002
  0.991379E+000  0.000000E+000  0.189655E+000 -0.224276E-012  0.000000E+000 -0.166860E-002
  0.172414E-001  0.000000E+000  0.224138E+000 -0.360236E-012  0.000000E+000 -0.163444E-002
  0.517241E-001  0.000000E+000  0.224138E+000 -0.580175E-013  0.000000E+000 -0.163444E-002
  0.862069E-001  0.000000E+000  0.224138E+000  0.604169E-012  0.000000E+000 -0.163444E-002
  0.120690E+000  0.000000E+000  0.224138E+000  0.120483E-011  0.000000E+000 -0.163444E-002
  0.155172E+000  0.000000E+000  0.224138E+000  0.172026E-011  0.000000E+000 -0.163444E-002
  0.189655E+000  0.000000E+000  0.224138E+000  0.212448E-011  0.000000E+000 -0.163444E-002
  0.224138E+000  0.000000E+000  0.224138E+000  0.261863E-011  0.000000E+000 -0.163444E-002
  0.258621E+000  0.000000E+000  0.224138E+000  0.310657E-011  0.000000E+000 -0.163444E-002
  0.293103E+000  0.000000E+000  0.224138E+000  0.344667E-011  0.000000E+000 -0.163444E-002
  0.327586E+000  0.000000E+000  0.224138E+000  0.387013E-011  0.000000E+000 -0.163444E-002
  0.362069E+000  0.000000E+000  0.224138E+000  0.418000E-011  0.000000E+000 -0.163444E-002
  0.396552E+000  0.000000E+000  0.224138E+000  0.445614E-011  0.000000E+000 -0.163444E-002
  0.431034E+000  0.000000E+000  0.224138E+000  0.467797E-011  0.000000E+000 -0.163444E-002
  0.465517E+000  0.000000E+000  0.224138E+000  0.481800E-011  0.000000E+000 -0.163444E-002
  0.500000E+000  0.000000E+000  0.224138E+000  0.490836E-011  0.000000E+000 -0.163444E-002
  0.534483E+000  0.000000E+000  0.224138E+000  0.493936E-011  0.000000E+000 -0.163444E-002
  0.568966E+000  0.000000E+000  0.224138E+000  0.485868E-011  0.000000E+000 -0.163444E-002
  0.603448E+000  0.000000E+000  0.224138E+000  0.470472E-011  0.000000E+000 -0.163444E-002
  0.637931E+000  0.000000E+000  0.224138E+000  0.453089E-011  0.000000E+000 -0.163444E-002
  0.672414E+000  0.000000E+000  0.224138E+000  0.425780E-011  0.000000E+000 -0.163444E-002
  0.706897E+000  0.000000E+000  0.224138E+000  0.390418E-011  0.000000E+000 -0.163444E-002
  0.741379E+000  0.000000E+000  0.224138E+000  0.351336E-011  0.000000E+000 -0.163444E-002
  0.775862E+000  0.000000E+000  0.224138E+000  0.308269E-011  0.000000E+000 -0.163444E-002
  0.810345E+000  0.000000E+000  0.224138E+000  0.259393E-011  0.000000E+000 -0.163444E-002
  0.844828E+000  0.000000E+000  0.224138E+000  0.205178E-011  0.000000E+000 -0.163444E-002
  0.879310E+000  0.000000E+000  0.224138E+000  0.147734E-011  0.000000E+000 -0.163444E-002
  0.913793E+000  0.000000E+000  0.224138E+000  0.885338E-012  0.000000E+000 -0.163444E-002
  0.948276E+000  0.000000E+000  0.224138E+000  0.296631E-012  0.000000E+000 -0.163444E-002
  0.991379E+000  0.000000E+000  0.224138E+000 -0.325303E-012  0.000000E+000 -0.163444E-002
  0.172414E-001  0.000000E+000  0.258621E+000 -0.483402E-012  0.000000E+000 -0.159728E-002
  0.517241E-001  0.000000E+000  0.258621E+000 -0.134841E-012  0.000000E+000 -0.159728E-002
  0.862069E-001  0.000000E+000  0.258621E+000  0.694700E-012  0.000000E+000 -0.159728E-002
  0.120690E+000  0.000000E+000  0.258621E+000  0.142376E-011  0.000000E+000 -0.159728E-002
  0.155172E+000  0.000000E+000  0.258621E+000  0.204837E-011  0.000000E+000 -0.159728E-002
  0.189655E+000  0.000000E+000  0.258621E+000  0.252853E-011  0.000000E+000 -0.159728E-002
  0.224138E+000  0.000000E+000  0.258621E+000  0.307713E-011  0.000000E+000 -0.159728E-002
  0.258621E+000  0.000000E+000  0.258621E+000  0.371326E-011  0.000000E+000 -0.159728E-002
  0.293103E+000  0.000000E+000  0.258621E+000  0.411666E-011  0.000000E+000 -0.159728E-002
  0.327586E+000  0.000000E+000  0.258621E+000  0.464090E-011  0.000000E+000 -0.159728E-002
  0.362069E+000  0.000000E+000  0.258621E+000  0.500264E-011  0.000000E+000 -0.159728E-002
  0.396552E+000  0.000000E+000  0.258621E+000  0.534779E-011  0.000000E+000 -0.159728E-002
  0.431034E+000  0.000000E+000  0.258621E+000  0.562361E-011  0.000000E+000 -0.159728E-002
  0.465517E+000  0.000000E+000  0.258621E+000  0.578971E-011  0.000000E+000 -0.159728E-002
  0.500000E+000  0.000000E+000  0.258621E+000  0.589139E-011  0.000000E+000 -0.159728E-002
  0.534483E+000  0.000000E+000  0.258621E+000  0.593810E-011  0.000000E+000 -0.159728E-002
  0.568966E+000  0.000000E+000  0.258621E+000  0.584069E-011  0.000000E+000 -0.159728E-002
  0.603448E+000  0.000000E+000  0.258621E+000  0.562760E-011  0.000000E+000 -0.159728E-002
  0.637931E+000  0.000000E+000  0.258621E+000  0.541572E-011  0.000000E+000 -0.159728E-002
  0.672414E+000  0.000000E+000  0.258621E+000  0.508785E-011  0.000000E+000 -0.159728E-002
  0.706897E+000  0.000000E+000  0.258621E+000  0.465065E-011  0.000000E+000 -0.159728E-002
  0.741379E+000  0.000000E+000  0.258621E+000  0.417025E-011  0.000000E+000 -0.159728E-002
  0.775862E+000  0.000000E+000  0.258621E+000  0.365218E-011  0.000000E+000 -0.159728E-002
  0.810345E+000  0.000000E+000  0.258621E+000  0.306966E-011  0.000000E+000 -0.159728E-002
  0.844828E+000  0.000000E+000  0.258621E+000  0.242103E-011  0.000000E+000 -0.159728E-002
  0.879310E+000  0.000000E+000  0.258621E+000  0.173296E-011  0.000000E+000 -0.159728E-002
  0.913793E+000  0.000000E+000  0.258621E+000  0.102729E-011  0.000000E+000 -0.159728E-002
  0.948276E+000  0.000000E+000  0.258621E+000  0.243170E-012  0.000000E+000 -0.159728E-002
  0.991379E+000  0.000000E+000  0.258621E+000 -0.441216E-012  0.000000E+000 -0.159728E-002
  0.172414E-001  0.000000E+000  0.293103E+000 -0.632649E-012  0.000000E+000 -0.155709E-002
  0.517241E-001  0.000000E+000  0.293103E+000 -0.238488E-012  0.000000E+000 -0.155709E-002
  0.862069E-001  0.000000E+000  0.293103E+000  0.770127E-012  0.000000E+000 -0.155709E-002
  0.120690E+000  0.000000E+000  0.293103E+000  0.161546E-011  0.000000E+000 -0.155709E-002
  0.155172E+000  0.000000E+000  0.293103E+000  0.234713E-011  0.000000E+000 -0.155709E-002
  0.189655E+000  0.000000E+000  0.293103E+000  0.292482E-011  0.000000E+000 -0.155709E-002
  0.224138E+000  0.000000E+000  0.293103E+000  0.348164E-011  0.000000E+000 -0.155709E-002
  0.258621E+000  0.000000E+000  0.293103E+000  0.428695E-011  0.000000E+000 -0.155709E-002
  0.293103E+000  0.000000E+000  0.293103E+000  0.475272E-011  0.000000E+000 -0.155709E-002
  0.327586E+000  0.000000E+000  0.293103E+000  0.537977E-011  0.000000E+000 -0.155709E-002
  0.362069E+000  0.000000E+000  0.293103E+000  0.579890E-011  0.000000E+000 -0.155709E-002
  0.396552E+000  0.000000E+000  0.293103E+000  0.620616E-011  0.000000E+000 -0.155709E-002
  0.431034E+000  0.000000E+000  0.293103E+000  0.654079E-011  0.000000E+000 -0.155709E-002
  0.465517E+000  0.000000E+000  0.293103E+000  0.673313E-011  0.000000E+000 -0.155709E-002
  0.500000E+000  0.000000E+000  0.293103E+000  0.683706E-011  0.000000E+000 -0.155709E-002
  0.534483E+000  0.000000E+000  0.293103E+000  0.690412E-011  0.000000E+000 -0.155709E-002
  0.568966E+000  0.000000E+000  0.293103E+000  0.680436E-011  0.000000E+000 -0.155709E-002
  0.603448E+000  0.000000E+000  0.293103E+000  0.651818E-011  0.000000E+000 -0.155709E-002
  0.637931E+000  0.000000E+000  0.293103E+000  0.626279E-011  0.000000E+000 -0.155709E-002
  0.672414E+000  0.000000E+000  0.293103E+000  0.588508E-011  0.000000E+000 -0.155709E-002
  0.706897E+000  0.000000E+000  0.293103E+000  0.536442E-011  0.000000E+000 -0.155709E-002
  0.741379E+000  0.000000E+000  0.293103E+000  0.479160E-011  0.000000E+000 -0.155709E-002
  0.775862E+000  0.000000E+000  0.293103E+000  0.418656E-011  0.000000E+000 -0.155709E-002
  0.810345E+000  0.000000E+000  0.293103E+000  0.351477E-011  0.000000E+000 -0.155709E-002
  0.844828E+000  0.000000E+000  0.293103E+000  0.276588E-011  0.000000E+000 -0.155709E-002
  0.879310E+000  0.000000E+000  0.293103E+000  0.197078E-011  0.000000E+000 -0.155709E-002
  0.913793E+000  0.000000E+000  0.293103E+000  0.113901E-011  0.000000E+000 -0.155709E-002
  0.948276E+000  0.000000E+000  0.293103E+000  0.129492E-012  0.000000E+000 -0.155709E-002
  0.991379E+000  0.000000E+000  0.293103E+000 -0.581842E-012  0.000000E+000 -0.155709E-002
  0.172414E-001  0.000000E+000  0.327586E+000 -0.807647E-012  0.000000E+000 -0.151375E-002
  0.517241E-001  0.000000E+000  0.327586E+000 -0.365963E-012  0.000000E+000 -0.151375E-002
  0.862069E-001  0.000000E+000  0.327586E+000  0.837660E-012  0.000000E+000 -0.151375E-002
  0.120690E+000  0.000000E+000  0.327586E+000  0.177211E-011  0.000000E+000 -0.151375E-002
  0.155172E+000  0.000000E+000  0.327586E+000  0.259145E-011  0.000000E+000 -0.151375E-002
  0.189655E+000  0.000000E+000  0.327586E+000  0.332218E-011  0.000000E+000 -0.151375E-002
  0.224138E+000  0.000000E+000  0.327586E+000  0.383705E-011  0.000000E+000 -0.151375E-002
  0.258621E+000  0.000000E+000  0.327586E+000  0.481174E-011  0.000000E+000 -0.151375E-002
  0.293103E+000  0.000000E+000  0.327586E+000  0.535477E-011  0.000000E+000 -0.151375E-002
  0.327586E+000  0.000000E+000  0.327586E+000  0.606780E-011  0.000000E+000 -0.151375E-002
  0.362069E+000  0.000000E+000  0.327586E+000  0.656300E-011  0.000000E+000 -0.151375E-002
  0.396552E+000  0.000000E+000  0.327586E+000  0.701969E-011  0.000000E+000 -0.151375E-002
  0.431034E+000  0.000000E+000  0.327586E+000  0.741994E-011  0.000000E+000 -0.151375E-002
  0.465517E+000  0.000000E+000  0.327586E+000  0.764227E-011  0.000000E+000 -0.151375E-002
  0.500000E+000  0.000000E+000  0.327586E+000  0.773348E-011  0.000000E+000 -0.151375E-002
  0.534483E+000  0.000000E+000  0.327586E+000  0.781629E-011  0.000000E+000 -0.151375E-002
  0.568966E+000  0.000000E+000  0.327586E+000  0.773915E-011  0.000000E+000 -0.151375E-002
  0.603448E+000  0.000000E+000  0.327586E+000  0.737046E-011  0.000000E+000 -0.151375E-002
  0.637931E+000  0.000000E+000  0.327586E+000  0.706238E-011  0.000000E+000 -0.151375E-002
  0.672414E+000  0.000000E+000  0.327586E+000  0.664020E-011  0.000000E+000 -0.151375E-002
  0.706897E+000  0.000000E+000  0.327586E+000  0.603927E-011  0.000000E+000 -0.151375E-002
  0.741379E+000  0.000000E+000  0.327586E+000  0.537279E-011  0.000000E+000 -0.151375E-002
  0.775862E+000  0.000000E+000  0.327586E+000  0.468139E-011  0.000000E+000 -0.151375E-002
  0.810345E+000  0.000000E+000  0.327586E+000  0.392487E-011  0.000000E+000 -0.151375E-002
  0.844828E+000  0.000000E+000  0.327586E+000  0.308246E-011  0.000000E+000 -0.151375E-002
  0.879310E+000  0.000000E+000  0.327586E+000  0.218510E-011  0.000000E+000 -0.151375E-002
  0.913793E+000  0.000000E+000  0.327586E+000  0.121568E-011  0.000000E+000 -0.151375E-002
  0.948276E+000  0.000000E+000  0.327586E+000 -0.116908E-014  0.000000E+000 -0.151375E-002
  0.991379E+000  0.000000E+000  0.327586E+000 -0.767349E-012  0.000000E+000 -0.151375E-002
  0.172414E-001  0.000000E+000  0.362069E+000 -0.100494E-011  0.000000E+000 -0.146708E-002
  0.517241E-001  0.000000E+000  0.362069E+000 -0.512569E-012  0.000000E+000 -0.146708E-002
  0.862069E-001  0.000000E+000  0.362069E+000  0.912449E-012  0.000000E+000 -0.146708E-002
  0.120690E+000  0.000000E+000  0.362069E+000  0.190140E-011  0.000000E+000 -0.146708E-002
  0.155172E+000  0.000000E+000  0.362069E+000  0.274182E-011  0.000000E+000 -0.146708E-002
  0.189655E+000  0.000000E+000  0.362069E+000  0.371998E-011  0.000000E+000 -0.146708E-002
  0.224138E+000  0.000000E+000  0.362069E+000  0.416988E-011  0.000000E+000 -0.146708E-002
  0.258621E+000  0.000000E+000  0.362069E+000  0.527241E-011  0.000000E+000 -0.146708E-002
  0.293103E+000  0.000000E+000  0.362069E+000  0.593054E-011  0.000000E+000 -0.146708E-002
  0.327586E+000  0.000000E+000  0.362069E+000  0.668665E-011  0.000000E+000 -0.146708E-002
  0.362069E+000  0.000000E+000  0.362069E+000  0.729072E-011  0.000000E+000 -0.146708E-002
  0.396552E+000  0.000000E+000  0.362069E+000  0.777759E-011  0.000000E+000 -0.146708E-002
  0.431034E+000  0.000000E+000  0.362069E+000  0.825211E-011  0.000000E+000 -0.146708E-002
  0.465517E+000  0.000000E+000  0.362069E+000  0.851661E-011  0.000000E+000 -0.146708E-002
  0.500000E+000  0.000000E+000  0.362069E+000  0.857923E-011  0.000000E+000 -0.146708E-002
  0.534483E+000  0.000000E+000  0.362069E+000  0.865558E-011  0.000000E+000 -0.146708E-002
  0.568966E+000  0.000000E+000  0.362069E+000  0.863240E-011  0.000000E+000 -0.146708E-002
  0.603448E+000  0.000000E+000  0.362069E+000  0.818077E-011  0.000000E+000 -0.146708E-002
  0.637931E+000  0.000000E+000  0.362069E+000  0.780826E-011  0.000000E+000 -0.146708E-002
  0.672414E+000  0.000000E+000  0.362069E+000  0.734569E-011  0.000000E+000 -0.146708E-002
  0.706897E+000  0.000000E+000  0.362069E+000  0.667055E-011  0.000000E+000 -0.146708E-002
  0.741379E+000  0.000000E+000  0.362069E+000  0.591178E-011  0.000000E+000 -0.146708E-002
  0.775862E+000  0.000000E+000  0.362069E+000  0.513635E-011  0.000000E+000 -0.146708E-002
  0.810345E+000  0.000000E+000  0.362069E+000  0.430142E-011  0.000000E+000 -0.146708E-002
  0.844828E+000  0.000000E+000  0.362069E+000  0.337305E-011  0.000000E+000 -0.146708E-002
  0.879310E+000  0.000000E+000  0.362069E+000  0.237307E-011  0.000000E+000 -0.146708E-002
  0.913793E+000  0.000000E+000  0.362069E+000  0.127009E-011  0.000000E+000 -0.146708E-002
  0.948276E+000  0.000000E+000  0.362069E+000 -0.160563E-012  0.000000E+000 -0.146708E-002
  0.991379E+000  0.000000E+000  0.362069E+000 -0.956696E-012  0.000000E+000 -0.146708E-002
  0.172414E-001  0.000000E+000  0.396552E+000 -0.121316E-011  0.000000E+000 -0.141683E-002
  0.517241E-001  0.000000E+000  0.396552E+000 -0.675498E-012  0.000000E+000 -0.141683E-002
  0.862069E-001  0.000000E+000  0.396552E+000  0.100260E-011  0.000000E+000 -0.141683E-002
  0.120690E+000  0.000000E+000  0.396552E+000  0.203176E-011  0.000000E+000 -0.141683E-002
  0.155172E+000  0.000000E+000  0.396552E+000  0.277384E-011  0.000000E+000 -0.141683E-002
  0.189655E+000  0.000000E+000  0.396552E+000  0.408683E-011  0.000000E+000 -0.141683E-002
  0.224138E+000  0.000000E+000  0.396552E+000  0.452163E-011  0.000000E+000 -0.141683E-002
  0.258621E+000  0.000000E+000  0.396552E+000  0.565284E-011  0.000000E+000 -0.141683E-002