title = "dataset transp-updrld"
variables = "x", "y", "z", "vx", "vy", "vz"
zone t = "velocities, solution time =  2.000E+01 days        " i =   29, j =   29, k =    1,  f=point
  0.172414E-001  0.000000E+000  0.172414E-001  0.219056E-014  0.000000E+000 -0.752965E-003
  0.517241E-001  0.000000E+000  0.172414E-001  0.178236E-014  0.000000E+000 -0.752965E-003
  0.862069E-001  0.000000E+000  0.172414E-001  0.123163E-013  0.000000E+000 -0.752965E-003
  0.120690E+000  0.000000E+000  0.172414E-001  0.147971E-013  0.000000E+000 -0.752965E-003
  0.155172E+000  0.000000E+000  0.172414E-001  0.249483E-013  0.000000E+000 -0.752965E-003
  0.189655E+000  0.000000E+000  0.172414E-001  0.366400E-013  0.000000E+000 -0.752965E-003
  0.224138E+000  0.000000E+000  0.172414E-001  0.490338E-013  0.000000E+000 -0.752965E-003
  0.258621E+000  0.000000E+000  0.172414E-001  0.597014E-013  0.000000E+000 -0.752965E-003
  0.293103E+000  0.000000E+000  0.172414E-001  0.675885E-013  0.000000E+000 -0.752965E-003
  0.327586E+000  0.000000E+000  0.172414E-001  0.730590E-013  0.000000E+000 -0.752965E-003
  0.362069E+000  0.000000E+000  0.172414E-001  0.767551E-013  0.000000E+000 -0.752965E-003
  0.396552E+000  0.000000E+000  0.172414E-001  0.791669E-013  0.000000E+000 -0.752965E-003
  0.431034E+000  0.000000E+000  0.172414E-001  0.807001E-013  0.000000E+000 -0.752965E-003
  0.465517E+000  0.000000E+000  0.172414E-001  0.815696E-013  0.000000E+000 -0.752965E-003
  0.500000E+000  0.000000E+000  0.172414E-001  0.819334E-013  0.000000E+000 -0.752965E-003
  0.534483E+000  0.000000E+000  0.172414E-001  0.818549E-013  0.000000E+000 -0.752965E-003
  0.568966E+000  0.000000E+000  0.172414E-001  0.813284E-013  0.000000E+000 -0.752965E-003
  0.603448E+000  0.000000E+000  0.172414E-001  0.802554E-013  0.000000E+000 -0.752965E-003
  0.637931E+000  0.000000E+000  0.172414E-001  0.784551E-013  0.000000E+000 -0.752965E-003
  0.672414E+000  0.000000E+000  0.172414E-001  0.756745E-013  0.000000E+000 -0.752965E-003
  0.706897E+000  0.000000E+000  0.172414E-001  0.716040E-013  0.000000E+000 -0.752965E-003
  0.741379E+000  0.000000E+000  0.172414E-001  0.659361E-013  0.000000E+000 -0.752965E-003
  0.775862E+000  0.000000E+000  0.172414E-001  0.584360E-013  0.000000E+000 -0.752965E-003
  0.810345E+000  0.000000E+000  0.172414E-001  0.491275E-013  0.000000E+000 -0.752965E-003
  0.844828E+000  0.000000E+000  0.172414E-001  0.383685E-013  0.000000E+000 -0.752965E-003
  0.879310E+000  0.000000E+000  0.172414E-001  0.269586E-013  0.000000E+000 -0.752965E-003
  0.913793E+000  0.000000E+000  0.172414E-001  0.159291E-013  0.000000E+000 -0.752965E-003
  0.948276E+000  0.000000E+000  0.172414E-001  0.629487E-014  0.000000E+000 -0.752965E-003
  0.991379E+000  0.000000E+000  0.172414E-001  0.313325E-014  0.000000E+000 -0.752965E-003
  0.172414E-001  0.000000E+000  0.517241E-001  0.517704E-015  0.000000E+000 -0.745372E-003
  0.517241E-001  0.000000E+000  0.517241E-001  0.106024E-013  0.000000E+000 -0.745372E-003
  0.862069E-001  0.000000E+000  0.517241E-001  0.601355E-013  0.000000E+000 -0.745372E-003
  0.120690E+000  0.000000E+000  0.517241E-001  0.678154E-013  0.000000E+000 -0.745372E-003
  0.155172E+000  0.000000E+000  0.517241E-001  0.116907E-012  0.000000E+000 -0.745372E-003
  0.189655E+000  0.000000E+000  0.517241E-001  0.176820E-012  0.000000E+000 -0.745372E-003
  0.224138E+000  0.000000E+000  0.517241E-001  0.237088E-012  0.000000E+000 -0.745372E-003
  0.258621E+000  0.000000E+000  0.517241E-001  0.287760E-012  0.000000E+000 -0.745372E-003
  0.293103E+000  0.000000E+000  0.517241E-001  0.325053E-012  0.000000E+000 -0.745372E-003
  0.327586E+000  0.000000E+000  0.517241E-001  0.350904E-012  0.000000E+000 -0.745372E-003
  0.362069E+000  0.000000E+000  0.517241E-001  0.368262E-012  0.000000E+000 -0.745372E-003
  0.396552E+000  0.000000E+000  0.517241E-001  0.379571E-012  0.000000E+000 -0.745372E-003
  0.431034E+000  0.000000E+000  0.517241E-001  0.386721E-012  0.000000E+000 -0.745372E-003
  0.465517E+000  0.000000E+000  0.517241E-001  0.390781E-012  0.000000E+000 -0.745372E-003
  0.500000E+000  0.000000E+000  0.517241E-001  0.392491E-012  0.000000E+000 -0.745372E-003
  0.534483E+000  0.000000E+000  0.517241E-001  0.392160E-012  0.000000E+000 -0.745372E-003
  0.568966E+000  0.000000E+000  0.517241E-001  0.389739E-012  0.000000E+000 -0.745372E-003
  0.603448E+000  0.000000E+000  0.517241E-001  0.384726E-012  0.000000E+000 -0.745371E-003
  0.637931E+000  0.000000E+000  0.517241E-001  0.376271E-012  0.000000E+000 -0.745371E-003
  0.672414E+000  0.000000E+000  0.517241E-001  0.363119E-012  0.000000E+000 -0.745371E-003
  0.706897E+000  0.000000E+000  0.517241E-001  0.343756E-012  0.000000E+000 -0.745371E-003
  0.741379E+000  0.000000E+000  0.517241E-001  0.316635E-012  0.000000E+000 -0.745371E-003
  0.775862E+000  0.000000E+000  0.517241E-001  0.280637E-012  0.000000E+000 -0.745371E-003
  0.810345E+000  0.000000E+000  0.517241E-001  0.235797E-012  0.000000E+000 -0.745371E-003
  0.844828E+000  0.000000E+000  0.517241E-001  0.183996E-012  0.000000E+000 -0.745371E-003
  0.879310E+000  0.000000E+000  0.517241E-001  0.129313E-012  0.000000E+000 -0.745371E-003
  0.913793E+000  0.000000E+000  0.517241E-001  0.767622E-013  0.000000E+000 -0.745371E-003
  0.948276E+000  0.000000E+000  0.517241E-001  0.294147E-013  0.000000E+000 -0.745371E-003
  0.991379E+000  0.000000E+000  0.517241E-001  0.659369E-014  0.000000E+000 -0.745371E-003
  0.172414E-001  0.000000E+000  0.862069E-001 -0.142294E-014  0.000000E+000 -0.732610E-003
  0.517241E-001  0.000000E+000  0.862069E-001  0.332797E-013  0.000000E+000 -0.732610E-003
  0.862069E-001  0.000000E+000  0.862069E-001  0.154780E-012  0.000000E+000 -0.732610E-003
  0.120690E+000  0.000000E+000  0.862069E-001  0.157730E-012  0.000000E+000 -0.732610E-003
  0.155172E+000  0.000000E+000  0.862069E-001  0.278094E-012  0.000000E+000 -0.732610E-003
  0.189655E+000  0.000000E+000  0.862069E-001  0.434083E-012  0.000000E+000 -0.732610E-003
  0.224138E+000  0.000000E+000  0.862069E-001  0.584540E-012  0.000000E+000 -0.732610E-003
  0.258621E+000  0.000000E+000  0.862069E-001  0.707517E-012  0.000000E+000 -0.732610E-003
  0.293103E+000  0.000000E+000  0.862069E-001  0.797090E-012  0.000000E+000 -0.732610E-003
  0.327586E+000  0.000000E+000  0.862069E-001  0.858808E-012  0.000000E+000 -0.732610E-003
  0.362069E+000  0.000000E+000  0.862069E-001  0.899862E-012  0.000000E+000 -0.732610E-003
  0.396552E+000  0.000000E+000  0.862069E-001  0.926436E-012  0.000000E+000 -0.732610E-003
  0.431034E+000  0.000000E+000  0.862069E-001  0.943091E-012  0.000000E+000 -0.732610E-003
  0.465517E+000  0.000000E+000  0.862069E-001  0.952559E-012  0.000000E+000 -0.732610E-003
  0.500000E+000  0.000000E+000  0.862069E-001  0.956594E-012  0.000000E+000 -0.732610E-003
  0.534483E+000  0.000000E+000  0.862069E-001  0.955955E-012  0.000000E+000 -0.732610E-003
  0.568966E+000  0.000000E+000  0.862069E-001  0.950433E-012  0.000000E+000 -0.732610E-003
  0.603448E+000  0.000000E+000  0.862069E-001  0.938814E-012  0.000000E+000 -0.732610E-003
  0.637931E+000  0.000000E+000  0.862069E-001  0.918935E-012  0.000000E+000 -0.732610E-003
  0.672414E+000  0.000000E+000  0.862069E-001  0.887633E-012  0.000000E+000 -0.732610E-003
  0.706897E+000  0.000000E+000  0.862069E-001  0.841018E-012  0.000000E+000 -0.732610E-003
  0.741379E+000  0.000000E+000  0.862069E-001  0.775074E-012  0.000000E+000 -0.732610E-003
  0.775862E+000  0.000000E+000  0.862069E-001  0.686878E-012  0.000000E+000 -0.732610E-003
  0.810345E+000  0.000000E+000  0.862069E-001  0.576533E-012  0.000000E+000 -0.732610E-003
  0.844828E+000  0.000000E+000  0.862069E-001  0.449257E-012  0.000000E+000 -0.732610E-003
  0.879310E+000  0.000000E+000  0.862069E-001  0.315991E-012  0.000000E+000 -0.732610E-003
  0.913793E+000  0.000000E+000  0.862069E-001  0.189436E-012  0.000000E+000 -0.732610E-003
  0.948276E+000  0.000000E+000  0.862069E-001  0.714098E-013  0.000000E+000 -0.732610E-003
  0.991379E+000  0.000000E+000  0.862069E-001  0.160379E-013  0.000000E+000 -0.732610E-003
  0.172414E-001  0.000000E+000  0.120690E+000  0.166299E-013  0.000000E+000 -0.716358E-003
  0.517241E-001  0.000000E+000  0.120690E+000  0.795188E-013  0.000000E+000 -0.716358E-003
  0.862069E-001  0.000000E+000  0.120690E+000  0.292413E-012  0.000000E+000 -0.716358E-003
  0.120690E+000  0.000000E+000  0.120690E+000  0.281948E-012  0.000000E+000 -0.716358E-003
  0.155172E+000  0.000000E+000  0.120690E+000  0.487441E-012  0.000000E+000 -0.716358E-003
  0.189655E+000  0.000000E+000  0.120690E+000  0.776318E-012  0.000000E+000 -0.716358E-003
  0.224138E+000  0.000000E+000  0.120690E+000  0.105168E-011  0.000000E+000 -0.716358E-003
  0.258621E+000  0.000000E+000  0.120690E+000  0.127151E-011  0.000000E+000 -0.716358E-003
  0.293103E+000  0.000000E+000  0.120690E+000  0.142895E-011  0.000000E+000 -0.716358E-003
  0.327586E+000  0.000000E+000  0.120690E+000  0.153598E-011  0.000000E+000 -0.716358E-003
  0.362069E+000  0.000000E+000  0.120690E+000  0.160613E-011  0.000000E+000 -0.716358E-003
  0.396552E+000  0.000000E+000  0.120690E+000  0.165091E-011  0.000000E+000 -0.716358E-003
  0.431034E+000  0.000000E+000  0.120690E+000  0.167861E-011  0.000000E+000 -0.716358E-003
  0.465517E+000  0.000000E+000  0.120690E+000  0.169433E-011  0.000000E+000 -0.716358E-003
  0.500000E+000  0.000000E+000  0.120690E+000  0.170115E-011  0.000000E+000 -0.716358E-003
  0.534483E+000  0.000000E+000  0.120690E+000  0.170037E-011  0.000000E+000 -0.716358E-003
  0.568966E+000  0.000000E+000  0.120690E+000  0.169156E-011  0.000000E+000 -0.716358E-003
  0.603448E+000  0.000000E+000  0.120690E+000  0.167248E-011  0.000000E+000 -0.716358E-003
  0.637931E+000  0.000000E+000  0.120690E+000  0.163908E-011  0.000000E+000 -0.716358E-003
  0.672414E+000  0.000000E+000  0.120690E+000  0.158542E-011  0.000000E+000 -0.716358E-003
  0.706897E+000  0.000000E+000  0.120690E+000  0.150405E-011  0.000000E+000 -0.716358E-003
  0.741379E+000  0.000000E+000  0.120690E+000  0.138716E-011  0.000000E+000 -0.716358E-003
  0.775862E+000  0.000000E+000  0.120690E+000  0.122908E-011  0.000000E+000 -0.716358E-003
  0.810345E+000  0.000000E+000  0.120690E+000  0.103022E-011  0.000000E+000 -0.716358E-003
  0.844828E+000  0.000000E+000  0.120690E+000  0.801488E-012  0.000000E+000 -0.716358E-003
  0.879310E+000  0.000000E+000  0.120690E+000  0.564838E-012  0.000000E+000 -0.716358E-003
  0.913793E+000  0.000000E+000  0.120690E+000  0.343570E-012  0.000000E+000 -0.716358E-003
  0.948276E+000  0.000000E+000  0.120690E+000  0.132449E-012  0.000000E+000 -0.716358E-003
  0.991379E+000  0.000000E+000  0.120690E+000  0.538563E-013  0.000000E+000 -0.716358E-003
  0.172414E-001  0.000000E+000  0.155172E+000  0.291923E-013  0.000000E+000 -0.697537E-003
  0.517241E-001  0.000000E+000  0.155172E+000  0.186015E-012  0.000000E+000 -0.697537E-003
  0.862069E-001  0.000000E+000  0.155172E+000  0.448598E-012  0.000000E+000 -0.697537E-003
  0.120690E+000  0.000000E+000  0.155172E+000  0.459674E-012  0.000000E+000 -0.697537E-003
  0.155172E+000  0.000000E+000  0.155172E+000  0.746325E-012  0.000000E+000 -0.697537E-003
  0.189655E+000  0.000000E+000  0.155172E+000  0.118353E-011  0.000000E+000 -0.697537E-003
  0.224138E+000  0.000000E+000  0.155172E+000  0.160955E-011  0.000000E+000 -0.697537E-003
  0.258621E+000  0.000000E+000  0.155172E+000  0.194687E-011  0.000000E+000 -0.697537E-003
  0.293103E+000  0.000000E+000  0.155172E+000  0.218410E-011  0.000000E+000 -0.697537E-003
  0.327586E+000  0.000000E+000  0.155172E+000  0.234213E-011  0.000000E+000 -0.697537E-003
  0.362069E+000  0.000000E+000  0.155172E+000  0.244346E-011  0.000000E+000 -0.697537E-003
  0.396552E+000  0.000000E+000  0.155172E+000  0.250671E-011  0.000000E+000 -0.697537E-003
  0.431034E+000  0.000000E+000  0.155172E+000  0.254512E-011  0.000000E+000 -0.697537E-003
  0.465517E+000  0.000000E+000  0.155172E+000  0.256674E-011  0.000000E+000 -0.697537E-003
  0.500000E+000  0.000000E+000  0.155172E+000  0.257632E-011  0.000000E+000 -0.697537E-003
  0.534483E+000  0.000000E+000  0.155172E+000  0.257580E-011  0.000000E+000 -0.697537E-003
  0.568966E+000  0.000000E+000  0.155172E+000  0.256441E-011  0.000000E+000 -0.697537E-003
  0.603448E+000  0.000000E+000  0.155172E+000  0.253862E-011  0.000000E+000 -0.697537E-003
  0.637931E+000  0.000000E+000  0.155172E+000  0.249188E-011  0.000000E+000 -0.697537E-003
  0.672414E+000  0.000000E+000  0.155172E+000  0.241454E-011  0.000000E+000 -0.697537E-003
  0.706897E+000  0.000000E+000  0.155172E+000  0.229432E-011  0.000000E+000 -0.697537E-003
  0.741379E+000  0.000000E+000  0.155172E+000  0.211813E-011  0.000000E+000 -0.697537E-003
  0.775862E+000  0.000000E+000  0.155172E+000  0.187648E-011  0.000000E+000 -0.697537E-003
  0.810345E+000  0.000000E+000  0.155172E+000  0.157065E-011  0.000000E+000 -0.697537E-003
  0.844828E+000  0.000000E+000  0.155172E+000  0.122021E-011  0.000000E+000 -0.697537E-003
  0.879310E+000  0.000000E+000  0.155172E+000  0.862375E-012  0.000000E+000 -0.697537E-003
  0.913793E+000  0.000000E+000  0.155172E+000  0.530841E-012  0.000000E+000 -0.697537E-003
  0.948276E+000  0.000000E+000  0.155172E+000  0.212274E-012  0.000000E+000 -0.697537E-003
  0.991379E+000  0.000000E+000  0.155172E+000  0.120331E-012  0.000000E+000 -0.697537E-003
  0.172414E-001  0.000000E+000  0.189655E+000  0.190994E-013  0.000000E+000 -0.676689E-003
  0.517241E-001  0.000000E+000  0.189655E+000  0.305540E-012  0.000000E+000 -0.676689E-003
  0.862069E-001  0.000000E+000  0.189655E+000  0.603857E-012  0.000000E+000 -0.676689E-003
  0.120690E+000  0.000000E+000  0.189655E+000  0.719369E-012  0.000000E+000 -0.676689E-003
  0.155172E+000  0.000000E+000  0.189655E+000  0.107757E-011  0.000000E+000 -0.676689E-003
  0.189655E+000  0.000000E+000  0.189655E+000  0.165412E-011  0.000000E+000 -0.676689E-003
  0.224138E+000  0.000000E+000  0.189655E+000  0.224435E-011  0.000000E+000 -0.676689E-003
  0.258621E+000  0.000000E+000  0.189655E+000  0.271678E-011  0.000000E+000 -0.676689E-003
  0.293103E+000  0.000000E+000  0.189655E+000  0.304478E-011  0.000000E+000 -0.676689E-003
  0.327586E+000  0.000000E+000  0.189655E+000  0.325812E-011  0.000000E+000 -0.676689E-003
  0.362069E+000  0.000000E+000  0.189655E+000  0.339096E-011  0.000000E+000 -0.676689E-003
  0.396552E+000  0.000000E+000  0.189655E+000  0.347131E-011  0.000000E+000 -0.676689E-003
  0.431034E+000  0.000000E+000  0.189655E+000  0.351874E-011  0.000000E+000 -0.676689E-003
  0.465517E+000  0.000000E+000  0.189655E+000  0.354506E-011  0.000000E+000 -0.676689E-003
  0.500000E+000  0.000000E+000  0.189655E+000  0.355702E-011  0.000000E+000 -0.676689E-003
  0.534483E+000  0.000000E+000  0.189655E+000  0.355734E-011  0.000000E+000 -0.676689E-003
  0.568966E+000  0.000000E+000  0.189655E+000  0.354484E-011  0.000000E+000 -0.676689E-003
  0.603448E+000  0.000000E+000  0.189655E+000  0.351431E-011  0.000000E+000 -0.676689E-003
  0.637931E+000  0.000000E+000  0.189655E+000  0.345613E-011  0.000000E+000 -0.676689E-003
  0.672414E+000  0.000000E+000  0.189655E+000  0.335591E-011  0.000000E+000 -0.676689E-003
  0.706897E+000  0.000000E+000  0.189655E+000  0.319502E-011  0.000000E+000 -0.676689E-003
  0.741379E+000  0.000000E+000  0.189655E+000  0.295345E-011  0.000000E+000 -0.676689E-003
  0.775862E+000  0.000000E+000  0.189655E+000  0.261677E-011  0.000000E+000 -0.676689E-003
  0.810345E+000  0.000000E+000  0.189655E+000  0.218782E-011  0.000000E+000 -0.676689E-003
  0.844828E+000  0.000000E+000  0.189655E+000  0.169832E-011  0.000000E+000 -0.676689E-003
  0.879310E+000  0.000000E+000  0.189655E+000  0.120401E-011  0.000000E+000 -0.676689E-003
  0.913793E+000  0.000000E+000  0.189655E+000  0.743378E-012  0.000000E+000 -0.676689E-003
  0.948276E+000  0.000000E+000  0.189655E+000  0.305041E-012  0.000000E+000 -0.676689E-003
  0.991379E+000  0.000000E+000  0.189655E+000  0.197502E-012  0.000000E+000 -0.676689E-003
  0.172414E-001  0.000000E+000  0.224138E+000 -0.298628E-013  0.000000E+000 -0.654169E-003
  0.517241E-001  0.000000E+000  0.224138E+000  0.373455E-012  0.000000E+000 -0.654169E-003
  0.862069E-001  0.000000E+000  0.224138E+000  0.744485E-012  0.000000E+000 -0.654169E-003
  0.120690E+000  0.000000E+000  0.224138E+000  0.108387E-011  0.000000E+000 -0.654169E-003
  0.155172E+000  0.000000E+000  0.224138E+000  0.151539E-011  0.000000E+000 -0.654169E-003
  0.189655E+000  0.000000E+000  0.224138E+000  0.219950E-011  0.000000E+000 -0.654169E-003
  0.224138E+000  0.000000E+000  0.224138E+000  0.295188E-011  0.000000E+000 -0.654169E-003
  0.258621E+000  0.000000E+000  0.224138E+000  0.357205E-011  0.000000E+000 -0.654169E-003
  0.293103E+000  0.000000E+000  0.224138E+000  0.400115E-011  0.000000E+000 -0.654169E-003
  0.327586E+000  0.000000E+000  0.224138E+000  0.427380E-011  0.000000E+000 -0.654169E-003
  0.362069E+000  0.000000E+000  0.224138E+000  0.443767E-011  0.000000E+000 -0.654169E-003
  0.396552E+000  0.000000E+000  0.224138E+000  0.453269E-011  0.000000E+000 -0.654169E-003
  0.431034E+000  0.000000E+000  0.224138E+000  0.458650E-011  0.000000E+000 -0.654169E-003
  0.465517E+000  0.000000E+000  0.224138E+000  0.461567E-011  0.000000E+000 -0.654169E-003
  0.500000E+000  0.000000E+000  0.224138E+000  0.462939E-011  0.000000E+000 -0.654169E-003
  0.534483E+000  0.000000E+000  0.224138E+000  0.463130E-011  0.000000E+000 -0.654169E-003
  0.568966E+000  0.000000E+000  0.224138E+000  0.461972E-011  0.000000E+000 -0.654169E-003
  0.603448E+000  0.000000E+000  0.224138E+000  0.458750E-011  0.000000E+000 -0.654169E-003
  0.637931E+000  0.000000E+000  0.224138E+000  0.452124E-011  0.000000E+000 -0.654169E-003
  0.672414E+000  0.000000E+000  0.224138E+000  0.440066E-011  0.000000E+000 -0.654169E-003
  0.706897E+000  0.000000E+000  0.224138E+000  0.419921E-011  0.000000E+000 -0.654169E-003
  0.741379E+000  0.000000E+000  0.224138E+000  0.388811E-011  0.000000E+000 -0.654169E-003
  0.775862E+000  0.000000E+000  0.224138E+000  0.344681E-011  0.000000E+000 -0.654169E-003
  0.810345E+000  0.000000E+000  0.224138E+000  0.288059E-011  0.000000E+000 -0.654169E-003
  0.844828E+000  0.000000E+000  0.224138E+000  0.223693E-011  0.000000E+000 -0.654169E-003
  0.879310E+000  0.000000E+000  0.224138E+000  0.159188E-011  0.000000E+000 -0.654169E-003
  0.913793E+000  0.000000E+000  0.224138E+000  0.977666E-012  0.000000E+000 -0.654169E-003
  0.948276E+000  0.000000E+000  0.224138E+000  0.406808E-012  0.000000E+000 -0.654169E-003
  0.991379E+000  0.000000E+000  0.224138E+000  0.276913E-012  0.000000E+000 -0.654169E-003
  0.172414E-001  0.000000E+000  0.258621E+000 -0.104873E-012  0.000000E+000 -0.630223E-003
  0.517241E-001  0.000000E+000  0.258621E+000  0.433625E-012  0.000000E+000 -0.630223E-003
  0.862069E-001  0.000000E+000  0.258621E+000  0.850964E-012  0.000000E+000 -0.630223E-003
  0.120690E+000  0.000000E+000  0.258621E+000  0.153498E-011  0.000000E+000 -0.630223E-003
  0.155172E+000  0.000000E+000  0.258621E+000  0.209093E-011  0.000000E+000 -0.630223E-003
  0.189655E+000  0.000000E+000  0.258621E+000  0.283945E-011  0.000000E+000 -0.630223E-003
  0.224138E+000  0.000000E+000  0.258621E+000  0.373531E-011  0.000000E+000 -0.630223E-003
  0.258621E+000  0.000000E+000  0.258621E+000  0.450810E-011  0.000000E+000 -0.630223E-003
  0.293103E+000  0.000000E+000  0.258621E+000  0.504647E-011  0.000000E+000 -0.630223E-003
  0.327586E+000  0.000000E+000  0.258621E+000  0.538194E-011  0.000000E+000 -0.630223E-003
  0.362069E+000  0.000000E+000  0.258621E+000  0.557586E-011  0.000000E+000 -0.630223E-003
  0.396552E+000  0.000000E+000  0.258621E+000  0.568233E-011  0.000000E+000 -0.630223E-003
  0.431034E+000  0.000000E+000  0.258621E+000  0.573913E-011  0.000000E+000 -0.630223E-003
  0.465517E+000  0.000000E+000  0.258621E+000  0.576878E-011  0.000000E+000 -0.630223E-003
  0.500000E+000  0.000000E+000  0.258621E+000  0.578344E-011  0.000000E+000 -0.630223E-003
  0.534483E+000  0.000000E+000  0.258621E+000  0.578782E-011  0.000000E+000 -0.630223E-003
  0.568966E+000  0.000000E+000  0.258621E+000  0.577975E-011  0.000000E+000 -0.630223E-003
  0.603448E+000  0.000000E+000  0.258621E+000  0.574980E-011  0.000000E+000 -0.630223E-003
  0.637931E+000  0.000000E+000  0.258621E+000  0.568013E-011  0.000000E+000 -0.630223E-003
  0.672414E+000  0.000000E+000  0.258621E+000  0.554343E-011  0.000000E+000 -0.630223E-003
  0.706897E+000  0.000000E+000  0.258621E+000  0.530350E-011  0.000000E+000 -0.630223E-003
  0.741379E+000  0.000000E+000  0.258621E+000  0.492090E-011  0.000000E+000 -0.630223E-003
  0.775862E+000  0.000000E+000  0.258621E+000  0.436766E-011  0.000000E+000 -0.630223E-003
  0.810345E+000  0.000000E+000  0.258621E+000  0.365252E-011  0.000000E+000 -0.630223E-003
  0.844828E+000  0.000000E+000  0.258621E+000  0.284232E-011  0.000000E+000 -0.630223E-003
  0.879310E+000  0.000000E+000  0.258621E+000  0.203391E-011  0.000000E+000 -0.630223E-003
  0.913793E+000  0.000000E+000  0.258621E+000  0.123754E-011  0.000000E+000 -0.630223E-003
  0.948276E+000  0.000000E+000  0.258621E+000  0.517105E-012  0.000000E+000 -0.630223E-003
  0.991379E+000  0.000000E+000  0.258621E+000  0.353659E-012  0.000000E+000 -0.630223E-003
  0.172414E-001  0.000000E+000  0.293103E+000 -0.146102E-012  0.000000E+000 -0.605040E-003
  0.517241E-001  0.000000E+000  0.293103E+000  0.503886E-012  0.000000E+000 -0.605040E-003
  0.862069E-001  0.000000E+000  0.293103E+000  0.966565E-012  0.000000E+000 -0.605040E-003
  0.120690E+000  0.000000E+000  0.293103E+000  0.198438E-011  0.000000E+000 -0.605040E-003
  0.155172E+000  0.000000E+000  0.293103E+000  0.280180E-011  0.000000E+000 -0.605040E-003
  0.189655E+000  0.000000E+000  0.293103E+000  0.358896E-011  0.000000E+000 -0.605040E-003
  0.224138E+000  0.000000E+000  0.293103E+000  0.460186E-011  0.000000E+000 -0.605040E-003
  0.258621E+000  0.000000E+000  0.293103E+000  0.552445E-011  0.000000E+000 -0.605040E-003
  0.293103E+000  0.000000E+000  0.293103E+000  0.617619E-011  0.000000E+000 -0.605040E-003
  0.327586E+000  0.000000E+000  0.293103E+000  0.657611E-011  0.000000E+000 -0.605040E-003
  0.362069E+000  0.000000E+000  0.293103E+000  0.679809E-011  0.000000E+000 -0.605040E-003
  0.396552E+000  0.000000E+000  0.293103E+000  0.691198E-011  0.000000E+000 -0.605040E-003
  0.431034E+000  0.000000E+000  0.293103E+000  0.696767E-011  0.000000E+000 -0.605040E-003
  0.465517E+000  0.000000E+000  0.293103E+000  0.699493E-011  0.000000E+000 -0.605040E-003
  0.500000E+000  0.000000E+000  0.293103E+000  0.700950E-011  0.000000E+000 -0.605040E-003
  0.534483E+000  0.000000E+000  0.293103E+000  0.701739E-011  0.000000E+000 -0.605040E-003
  0.568966E+000  0.000000E+000  0.293103E+000  0.701591E-011  0.000000E+000 -0.605040E-003
  0.603448E+000  0.000000E+000  0.293103E+000  0.699309E-011  0.000000E+000 -0.605040E-003
  0.637931E+000  0.000000E+000  0.293103E+000  0.692602E-011  0.000000E+000 -0.605040E-003
  0.672414E+000  0.000000E+000  0.293103E+000  0.677922E-011  0.000000E+000 -0.605040E-003
  0.706897E+000  0.000000E+000  0.293103E+000  0.650514E-011  0.000000E+000 -0.605040E-003
  0.741379E+000  0.000000E+000  0.293103E+000  0.605163E-011  0.000000E+000 -0.605040E-003
  0.775862E+000  0.000000E+000  0.293103E+000  0.538197E-011  0.000000E+000 -0.605040E-003
  0.810345E+000  0.000000E+000  0.293103E+000  0.450909E-011  0.000000E+000 -0.605040E-003
  0.844828E+000  0.000000E+000  0.293103E+000  0.352268E-011  0.000000E+000 -0.605040E-003
  0.879310E+000  0.000000E+000  0.293103E+000  0.254003E-011  0.000000E+000 -0.605040E-003
  0.913793E+000  0.000000E+000  0.293103E+000  0.153097E-011  0.000000E+000 -0.605040E-003
  0.948276E+000  0.000000E+000  0.293103E+000  0.635132E-012  0.000000E+000 -0.605040E-003
  0.991379E+000  0.000000E+000  0.293103E+000  0.414620E-012  0.000000E+000 -0.605040E-003
  0.172414E-001  0.000000E+000  0.327586E+000 -0.109190E-012  0.000000E+000 -0.578766E-003
  0.517241E-001  0.000000E+000  0.327586E+000  0.424119E-012  0.000000E+000 -0.578766E-003
  0.862069E-001  0.000000E+000  0.327586E+000  0.125313E-011  0.000000E+000 -0.578766E-003
  0.120690E+000  0.000000E+000  0.327586E+000  0.236619E-011  0.000000E+000 -0.578766E-003
  0.155172E+000  0.000000E+000  0.327586E+000  0.362020E-011  0.000000E+000 -0.578766E-003
  0.189655E+000  0.000000E+000  0.327586E+000  0.444493E-011  0.000000E+000 -0.578766E-003
  0.224138E+000  0.000000E+000  0.327586E+000  0.555330E-011  0.000000E+000 -0.578766E-003
  0.258621E+000  0.000000E+000  0.327586E+000  0.662069E-011  0.000000E+000 -0.578766E-003
  0.293103E+000  0.000000E+000  0.327586E+000  0.738658E-011  0.000000E+000 -0.578766E-003
  0.327586E+000  0.000000E+000  0.327586E+000  0.784981E-011  0.000000E+000 -0.578766E-003
  0.362069E+000  0.000000E+000  0.327586E+000  0.809602E-011  0.000000E+000 -0.578766E-003
  0.396552E+000  0.000000E+000  0.327586E+000  0.821212E-011  0.000000E+000 -0.578766E-003
  0.431034E+000  0.000000E+000  0.327586E+000  0.826177E-011  0.000000E+000 -0.578766E-003
  0.465517E+000  0.000000E+000  0.327586E+000  0.828325E-011  0.000000E+000 -0.578766E-003
  0.500000E+000  0.000000E+000  0.327586E+000  0.829651E-011  0.000000E+000 -0.578766E-003
  0.534483E+000  0.000000E+000  0.327586E+000  0.830907E-011  0.000000E+000 -0.578766E-003
  0.568966E+000  0.000000E+000  0.327586E+000  0.831773E-011  0.000000E+000 -0.578766E-003
  0.603448E+000  0.000000E+000  0.327586E+000  0.830780E-011  0.000000E+000 -0.578766E-003
  0.637931E+000  0.000000E+000  0.327586E+000  0.825077E-011  0.000000E+000 -0.578766E-003
  0.672414E+000  0.000000E+000  0.327586E+000  0.810193E-011  0.000000E+000 -0.578766E-003
  0.706897E+000  0.000000E+000  0.327586E+000  0.780069E-011  0.000000E+000 -0.578766E-003
  0.741379E+000  0.000000E+000  0.327586E+000  0.728006E-011  0.000000E+000 -0.578766E-003
  0.775862E+000  0.000000E+000  0.327586E+000  0.649285E-011  0.000000E+000 -0.578766E-003
  0.810345E+000  0.000000E+000  0.327586E+000  0.545642E-011  0.000000E+000 -0.578766E-003
  0.844828E+000  0.000000E+000  0.327586E+000  0.428590E-011  0.000000E+000 -0.578766E-003
  0.879310E+000  0.000000E+000  0.327586E+000  0.311869E-011  0.000000E+000 -0.578766E-003
  0.913793E+000  0.000000E+000  0.327586E+000  0.186598E-011  0.000000E+000 -0.578766E-003
  0.948276E+000  0.000000E+000  0.327586E+000  0.759494E-012  0.000000E+000 -0.578766E-003
  0.991379E+000  0.000000E+000  0.327586E+000  0.442695E-012  0.000000E+000 -0.578766E-003
  0.172414E-001  0.000000E+000  0.362069E+000 -0.117972E-012  0.000000E+000 -0.551524E-003
  0.517241E-001  0.000000E+000  0.362069E+000  0.320661E-012  0.000000E+000 -0.551524E-003
  0.862069E-001  0.000000E+000  0.362069E+000  0.182699E-011  0.000000E+000 -0.551524E-003
  0.120690E+000  0.000000E+000  0.362069E+000  0.270206E-011  0.000000E+000 -0.551524E-003
  0.155172E+000  0.000000E+000  0.362069E+000  0.452875E-011  0.000000E+000 -0.551524E-003
  0.189655E+000  0.000000E+000  0.362069E+000  0.539625E-011  0.000000E+000 -0.551524E-003
  0.224138E+000  0.000000E+000  0.362069E+000  0.658710E-011  0.000000E+000 -0.551524E-003
  0.258621E+000  0.000000E+000  0.362069E+000  0.779613E-011  0.000000E+000 -0.551524E-003
  0.293103E+000  0.000000E+000  0.362069E+000  0.867465E-011  0.000000E+000 -0.551524E-003
  0.327586E+000  0.000000E+000  0.362069E+000  0.919636E-011  0.000000E+000 -0.551524E-003
  0.362069E+000  0.000000E+000  0.362069E+000  0.946003E-011  0.000000E+000 -0.551524E-003
  0.396552E+000  0.000000E+000  0.362069E+000  0.957127E-011  0.000000E+000 -0.551524E-003
  0.431034E+000  0.000000E+000  0.362069E+000  0.960884E-011  0.000000E+000 -0.551524E-003
  0.465517E+000  0.000000E+000  0.362069E+000  0.962055E-011  0.000000E+000 -0.551524E-003
  0.500000E+000  0.000000E+000  0.362069E+000  0.963109E-011  0.000000E+000 -0.551524E-003
  0.534483E+000  0.000000E+000  0.362069E+000  0.964961E-011  0.000000E+000 -0.551524E-003
  0.568966E+000  0.000000E+000  0.362069E+000  0.967245E-011  0.000000E+000 -0.551524E-003
  0.603448E+000  0.000000E+000  0.362069E+000  0.968212E-011  0.000000E+000 -0.551524E-003
  0.637931E+000  0.000000E+000  0.362069E+000  0.964419E-011  0.000000E+000 -0.551524E-003
  0.672414E+000  0.000000E+000  0.362069E+000  0.950380E-011  0.000000E+000 -0.551524E-003
  0.706897E+000  0.000000E+000  0.362069E+000  0.918570E-011  0.000000E+000 -0.551524E-003
  0.741379E+000  0.000000E+000  0.362069E+000  0.860567E-011  0.000000E+000 -0.551524E-003
  0.775862E+000  0.000000E+000  0.362069E+000  0.770379E-011  0.000000E+000 -0.551524E-003
  0.810345E+000  0.000000E+000  0.362069E+000  0.650106E-011  0.000000E+000 -0.551524E-003
  0.844828E+000  0.000000E+000  0.362069E+000  0.513958E-011  0.000000E+000 -0.551524E-003
  0.879310E+000  0.000000E+000  0.362069E+000  0.377647E-011  0.000000E+000 -0.551524E-003
  0.913793E+000  0.000000E+000  0.362069E+000  0.224945E-011  0.000000E+000 -0.551524E-003
  0.948276E+000  0.000000E+000  0.362069E+000  0.893151E-012  0.000000E+000 -0.551524E-003
  0.991379E+000  0.000000E+000  0.362069E+000  0.440775E-012  0.000000E+000 -0.551524E-003
  0.172414E-001  0.000000E+000  0.396552E+000 -0.181845E-012  0.000000E+000 -0.523419E-003
  0.517241E-001  0.000000E+000  0.396552E+000  0.396766E-012  0.000000E+000 -0.523419E-003
  0.862069E-001  0.000000E+000  0.396552E+000  0.265441E-011  0.000000E+000 -0.523419E-003
  0.120690E+000  0.000000E+000  0.396552E+000  0.313551E-011  0.000000E+000 -0.523419E-003
  0.155172E+000  0.000000E+000  0.396552E+000  0.553575E-011  0.000000E+000 -0.523419E-003
  0.189655E+000  0.000000E+000  0.396552E+000  0.643347E-011  0.000000E+000 -0.523419E-003
  0.224138E+000  0.000000E+000  0.396552E+000  0.770429E-011  0.000000E+000 -0.523419E-003
  0.258621E+000  0.000000E+000  0.396552E+000  0.905487E-011  0.000000E+000 -0.523419E-003