title = "dataset transp-updrld"
variables = "time", "inflow", "outflow", "change in storage", "root water uptake" 
zone t = "mass balance -  variably saturated flow", f=point
  1.0000E-10  8.6400E-03  0.0000E+00  8.6399E-03  0.0000E+00
  6.0000E-10  8.6400E-03  0.0000E+00  8.6399E-03  0.0000E+00
  3.1000E-09  8.6400E-03  0.0000E+00  8.6399E-03  0.0000E+00
  1.5600E-08  8.6400E-03  0.0000E+00  8.6400E-03  0.0000E+00
  7.8100E-08  8.6400E-03  0.0000E+00  8.6400E-03  0.0000E+00
  3.9060E-07  8.6400E-03  0.0000E+00  8.6400E-03  0.0000E+00
  1.9531E-06  8.6400E-03  0.0000E+00  8.6400E-03  0.0000E+00
  9.7656E-06  8.6400E-03  0.0000E+00  8.6400E-03  0.0000E+00
  4.8828E-05  8.6400E-03  0.0000E+00  8.6400E-03  0.0000E+00
  2.4414E-04  8.6400E-03  0.0000E+00  8.6400E-03  0.0000E+00
  1.2207E-03  8.6400E-03  0.0000E+00  8.6400E-03  0.0000E+00
  6.1035E-03  8.6400E-03  0.0000E+00  8.6400E-03  0.0000E+00
  3.0518E-02  8.6400E-03  0.0000E+00  8.6400E-03  0.0000E+00
  1.5259E-01  8.6400E-03  1.0205E-14  8.6400E-03  0.0000E+00
  5.8163E-01  8.6400E-03  7.2230E-09  8.6400E-03  0.0000E+00
  1.0000E+00  8.6400E-03  6.0706E-08  8.6399E-03  0.0000E+00
  2.0000E+00  4.1835E-04  3.7253E-03 -4.6056E-03  0.0000E+00
  2.5975E+00  1.2131E-02  1.9761E-03  1.0154E-02  0.0000E+00
  3.0000E+00  1.2131E-02  1.5605E-03  1.0570E-02  0.0000E+00
  4.0000E+00  2.3622E-05  1.1891E-03 -1.1654E-03  0.0000E+00
  5.0000E+00  0.0000E+00  1.0355E-03 -1.0355E-03  0.0000E+00
  6.0000E+00  0.0000E+00  9.7551E-04 -9.7551E-04  0.0000E+00
  7.0000E+00  0.0000E+00  9.6007E-04 -9.6007E-04  0.0000E+00
  8.0000E+00  0.0000E+00  9.6241E-04 -9.6241E-04  0.0000E+00
  9.0000E+00  0.0000E+00  9.6728E-04 -9.6728E-04  0.0000E+00
  1.0000E+01  0.0000E+00  9.6738E-04 -9.6737E-04  0.0000E+00
  1.1000E+01  0.0000E+00  9.6044E-04 -9.6044E-04  0.0000E+00
  1.2000E+01  0.0000E+00  9.4689E-04 -9.4689E-04  0.0000E+00
  1.3000E+01  0.0000E+00  9.2814E-04 -9.2814E-04  0.0000E+00
  1.4000E+01  0.0000E+00  9.0578E-04 -9.0578E-04  0.0000E+00
  1.5000E+01  0.0000E+00  8.8119E-04 -8.8118E-04  0.0000E+00
  1.6000E+01  0.0000E+00  8.5542E-04 -8.5542E-04  0.0000E+00
  1.7000E+01  0.0000E+00  8.2926E-04 -8.2926E-04  0.0000E+00
  1.8000E+01  0.0000E+00  8.0325E-04 -8.0325E-04  0.0000E+00
  1.9000E+01  0.0000E+00  7.7774E-04 -7.7774E-04  0.0000E+00
  2.0000E+01  0.0000E+00  7.5297E-04 -7.5296E-04  0.0000E+00
  2.1000E+01  1.5250E-03  7.2930E-04  7.9566E-04  0.0000E+00
  2.2000E+01  0.0000E+00  7.0719E-04 -7.0719E-04  0.0000E+00
  2.3000E+01  0.0000E+00  6.8691E-04 -6.8691E-04  0.0000E+00
  2.4000E+01  4.5144E-03  6.6920E-04  3.8452E-03  0.0000E+00
  2.5000E+01  0.0000E+00  6.5512E-04 -6.5512E-04  0.0000E+00
  2.6000E+01  8.3920E-03  6.4795E-04  7.7441E-03  0.0000E+00
  2.7000E+01  1.8913E-02  6.7507E-04  1.8238E-02  0.0000E+00
  2.8000E+01  1.8913E-02  8.9457E-04  1.8018E-02  0.0000E+00
  2.9000E+01  8.0361E-03  1.6385E-03  6.3975E-03  0.0000E+00
  3.0000E+01  1.8913E-02  3.4492E-03  1.5464E-02  0.0000E+00
  3.1000E+01  3.4975E-03  5.2931E-03 -1.7956E-03  0.0000E+00
  3.2000E+01  3.3782E-03  6.0816E-03 -2.7034E-03  0.0000E+00
  3.3000E+01  0.0000E+00  5.9457E-03 -5.9457E-03  0.0000E+00
  3.4000E+01  4.3891E-03  5.5673E-03 -1.1782E-03  0.0000E+00
  3.5000E+01  1.0014E-03  5.1281E-03 -4.1267E-03  0.0000E+00
  3.6000E+01  0.0000E+00  4.6541E-03 -4.6541E-03  0.0000E+00
  3.7000E+01  0.0000E+00  4.1847E-03 -4.1847E-03  0.0000E+00
  3.8000E+01  0.0000E+00  3.7527E-03 -3.7527E-03  0.0000E+00
  3.9000E+01  0.0000E+00  3.3723E-03 -3.3723E-03  0.0000E+00
  4.0000E+01  0.0000E+00  3.0440E-03 -3.0440E-03  0.0000E+00
  4.1000E+01  0.0000E+00  2.7627E-03 -2.7627E-03  0.0000E+00
  4.2000E+01  0.0000E+00  2.5213E-03 -2.5213E-03  0.0000E+00
  4.3000E+01  0.0000E+00  2.3133E-03 -2.3133E-03  0.0000E+00
  4.4000E+01  0.0000E+00  2.1331E-03 -2.1331E-03  0.0000E+00
  4.5000E+01  0.0000E+00  1.9758E-03 -1.9758E-03  0.0000E+00
  4.6000E+01  0.0000E+00  1.8377E-03 -1.8377E-03  0.0000E+00
  4.7000E+01  3.2158E-04  1.7164E-03 -1.3948E-03  0.0000E+00
  4.8000E+01  1.1085E-02  1.6443E-03  9.4409E-03  0.0000E+00
  4.9000E+01  7.7985E-03  1.6739E-03  6.1246E-03  0.0000E+00
  5.0000E+01  1.7919E-03  1.8036E-03 -1.1630E-05  0.0000E+00
  5.1000E+01  6.2389E-03  2.0168E-03  4.2222E-03  0.0000E+00
  5.2000E+01  4.1835E-04  2.2373E-03 -1.8189E-03  0.0000E+00
  5.3000E+01  6.7314E-03  2.4532E-03  4.2782E-03  0.0000E+00
  5.4000E+01  0.0000E+00  2.6144E-03 -2.6144E-03  0.0000E+00
  5.5000E+01  0.0000E+00  2.6717E-03 -2.6717E-03  0.0000E+00
  5.6000E+01  0.0000E+00  2.6283E-03 -2.6283E-03  0.0000E+00
  5.7000E+01  0.0000E+00  2.5188E-03 -2.5188E-03  0.0000E+00
  5.8000E+01  0.0000E+00  2.3776E-03 -2.3775E-03  0.0000E+00
  5.9000E+01  0.0000E+00  2.2275E-03 -2.2275E-03  0.0000E+00
  6.0000E+01  2.3268E-03  2.0904E-03  2.3631E-04  0.0000E+00
  6.1000E+01  5.7516E-03  1.9998E-03  3.7518E-03  0.0000E+00
  6.2000E+01  0.0000E+00  1.9511E-03 -1.9511E-03  0.0000E+00
  6.3000E+01  0.0000E+00  1.9168E-03 -1.9168E-03  0.0000E+00
  6.4000E+01  2.6888E-02  2.1600E-03  2.4728E-02  0.0000E+00
  6.4692E+01  2.1937E-03  2.5371E-03 -3.4338E-04  0.0000E+00
  6.5000E+01  2.1937E-03  2.7555E-03 -5.6182E-04  0.0000E+00
  6.6000E+01  3.7109E-02  5.3397E-03  3.1769E-02  0.0000E+00
  6.6805E+01  1.0014E-03  7.5351E-03 -6.5337E-03  0.0000E+00
  6.7000E+01  1.0014E-03  8.0250E-03 -7.0237E-03  0.0000E+00
  6.7976E+01  0.0000E+00  7.9894E-03 -7.9894E-03  0.0000E+00
  6.8000E+01  0.0000E+00  7.9870E-03 -7.9870E-03  0.0000E+00
  6.8122E+01  5.8743E-03  7.9420E-03 -2.0677E-03  0.0000E+00
  6.8734E+01  5.8743E-03  7.4912E-03 -1.6169E-03  0.0000E+00
  6.9000E+01  5.8743E-03  7.2936E-03 -1.4192E-03  0.0000E+00
  7.0000E+01  0.0000E+00  6.5055E-03 -6.5055E-03  0.0000E+00
  7.1000E+01  0.0000E+00  5.7141E-03 -5.7141E-03  0.0000E+00
  7.2000E+01  0.0000E+00  4.9939E-03 -4.9939E-03  0.0000E+00
  7.3000E+01  0.0000E+00  4.3785E-03 -4.3785E-03  0.0000E+00
  7.4000E+01  5.2609E-03  3.9590E-03  1.3019E-03  0.0000E+00
  7.5000E+01  7.0001E-05  3.6511E-03 -3.5811E-03  0.0000E+00
  7.6000E+01  0.0000E+00  3.3775E-03 -3.3775E-03  0.0000E+00
  7.7000E+01  0.0000E+00  3.1145E-03 -3.1145E-03  0.0000E+00
  7.8000E+01  0.0000E+00  2.8642E-03 -2.8642E-03  0.0000E+00
  7.9000E+01  7.1660E-04  2.6376E-03 -1.9210E-03  0.0000E+00
  8.0000E+01  0.0000E+00  2.4367E-03 -2.4367E-03  0.0000E+00
  8.1000E+01  0.0000E+00  2.2581E-03 -2.2581E-03  0.0000E+00
  8.2000E+01  0.0000E+00  2.0982E-03 -2.0982E-03  0.0000E+00
  8.3000E+01  0.0000E+00  1.9546E-03 -1.9546E-03  0.0000E+00
  8.4000E+01  0.0000E+00  1.8253E-03 -1.8253E-03  0.0000E+00
  8.5000E+01  0.0000E+00  1.7089E-03 -1.7089E-03  0.0000E+00
  8.6000E+01  0.0000E+00  1.6040E-03 -1.6040E-03  0.0000E+00
  8.7000E+01  0.0000E+00  1.5093E-03 -1.5093E-03  0.0000E+00
  8.8000E+01  0.0000E+00  1.4236E-03 -1.4236E-03  0.0000E+00
  8.9000E+01  0.0000E+00  1.3458E-03 -1.3458E-03  0.0000E+00
  9.0000E+01  0.0000E+00  1.2751E-03 -1.2751E-03  0.0000E+00
  9.1000E+01  0.0000E+00  1.2105E-03 -1.2105E-03  0.0000E+00
  9.2000E+01  0.0000E+00  1.1515E-03 -1.1515E-03  0.0000E+00
  9.3000E+01  0.0000E+00  1.0973E-03 -1.0973E-03  0.0000E+00
  9.4000E+01  0.0000E+00  1.0474E-03 -1.0474E-03  0.0000E+00
  9.5000E+01  0.0000E+00  1.0013E-03 -1.0013E-03  0.0000E+00
  9.6000E+01  0.0000E+00  9.5875E-04 -9.5875E-04  0.0000E+00
  9.7000E+01  7.9177E-03  9.2339E-04  6.9943E-03  0.0000E+00
  9.8000E+01  5.6298E-03  9.0514E-04  4.7247E-03  0.0000E+00
  9.9000E+01  1.6580E-03  9.1308E-04  7.4493E-04  0.0000E+00
  1.0000E+02  8.7523E-04  9.4795E-04 -7.2719E-05  0.0000E+00
  1.0100E+02  4.0971E-07  9.9973E-04 -9.9932E-04  0.0000E+00
  1.0200E+02  0.0000E+00  1.0528E-03 -1.0528E-03  0.0000E+00
  1.0300E+02  4.0971E-07  1.0941E-03 -1.0936E-03  0.0000E+00
  1.0400E+02  0.0000E+00  1.1172E-03 -1.1172E-03  0.0000E+00
  1.0500E+02  0.0000E+00  1.1221E-03 -1.1221E-03  0.0000E+00
  1.0600E+02  0.0000E+00  1.1122E-03 -1.1122E-03  0.0000E+00
  1.0700E+02  1.2485E-02  1.1091E-03  1.1376E-02  0.0000E+00
  1.0799E+02  0.0000E+00  1.1309E-03 -1.1309E-03  0.0000E+00
  1.0800E+02  0.0000E+00  1.1311E-03 -1.1311E-03  0.0000E+00
  1.0804E+02  0.0000E+00  1.1320E-03 -1.1320E-03  0.0000E+00
  1.0823E+02  0.0000E+00  1.1375E-03 -1.1375E-03  0.0000E+00
  1.0900E+02  0.0000E+00  1.1761E-03 -1.1761E-03  0.0000E+00
  1.1000E+02  0.0000E+00  1.2315E-03 -1.2315E-03  0.0000E+00
  1.1100E+02  3.8007E-04  1.2738E-03 -8.9371E-04  0.0000E+00
  1.1200E+02  0.0000E+00  1.2944E-03 -1.2944E-03  0.0000E+00
  1.1300E+02  0.0000E+00  1.2934E-03 -1.2934E-03  0.0000E+00
  1.1400E+02  0.0000E+00  1.2751E-03 -1.2751E-03  0.0000E+00
  1.1500E+02  0.0000E+00  1.2448E-03 -1.2448E-03  0.0000E+00
  1.1600E+02  0.0000E+00  1.2070E-03 -1.2070E-03  0.0000E+00
  1.1700E+02  0.0000E+00  1.1652E-03 -1.1652E-03  0.0000E+00
  1.1800E+02  0.0000E+00  1.1218E-03 -1.1218E-03  0.0000E+00
  1.1900E+02  0.0000E+00  1.0784E-03 -1.0784E-03  0.0000E+00
  1.2000E+02  0.0000E+00  1.0360E-03 -1.0360E-03  0.0000E+00
  1.2100E+02  0.0000E+00  9.9508E-04 -9.9508E-04  0.0000E+00
  1.2200E+02  0.0000E+00  9.5603E-04 -9.5603E-04  0.0000E+00
  1.2300E+02  3.3592E-04  9.1907E-04 -5.8314E-04  0.0000E+00
  1.2400E+02  0.0000E+00  8.8435E-04 -8.8435E-04  0.0000E+00
  1.2500E+02  0.0000E+00  8.5188E-04 -8.5188E-04  0.0000E+00
  1.2600E+02  0.0000E+00  8.2152E-04 -8.2152E-04  0.0000E+00
  1.2700E+02  0.0000E+00  7.9305E-04 -7.9305E-04  0.0000E+00
  1.2800E+02  0.0000E+00  7.6626E-04 -7.6626E-04  0.0000E+00
  1.2900E+02  0.0000E+00  7.4096E-04 -7.4096E-04  0.0000E+00
  1.3000E+02  0.0000E+00  7.1699E-04 -7.1699E-04  0.0000E+00
  1.3100E+02  0.0000E+00  6.9425E-04 -6.9425E-04  0.0000E+00
  1.3200E+02  0.0000E+00  6.7263E-04 -6.7263E-04  0.0000E+00
  1.3300E+02  0.0000E+00  6.5207E-04 -6.5207E-04  0.0000E+00
  1.3400E+02  2.3268E-03  6.3272E-04  1.6940E-03  0.0000E+00
  1.3500E+02  8.4283E-03  6.1653E-04  7.8118E-03  0.0000E+00
  1.3600E+02  0.0000E+00  6.0670E-04 -6.0670E-04  0.0000E+00
  1.3700E+02  0.0000E+00  6.0558E-04 -6.0558E-04  0.0000E+00
  1.3800E+02  0.0000E+00  6.1304E-04 -6.1304E-04  0.0000E+00
  1.3850E+02  3.2875E-02  6.1939E-04  3.2256E-02  0.0000E+00
  1.3882E+02  3.2875E-02  6.2513E-04  3.2250E-02  0.0000E+00
  1.3900E+02  3.2875E-02  6.2895E-04  3.2246E-02  0.0000E+00
  1.3975E+02  0.0000E+00  7.0639E-04 -7.0640E-04  0.0000E+00
  1.4000E+02  0.0000E+00  7.4609E-04 -7.4609E-04  0.0000E+00
  1.4100E+02  9.7546E-05  1.1223E-03 -1.0248E-03  0.0000E+00
  1.4200E+02  0.0000E+00  1.5924E-03 -1.5924E-03  0.0000E+00
  1.4300E+02  0.0000E+00  1.9379E-03 -1.9379E-03  0.0000E+00
  1.4400E+02  0.0000E+00  2.0957E-03 -2.0957E-03  0.0000E+00
  1.4500E+02  0.0000E+00  2.1160E-03 -2.1160E-03  0.0000E+00
  1.4600E+02  0.0000E+00  2.0601E-03 -2.0601E-03  0.0000E+00
  1.4700E+02  4.0098E-03  1.9856E-03  2.0242E-03  0.0000E+00
  1.4800E+02  0.0000E+00  1.9156E-03 -1.9156E-03  0.0000E+00
  1.4900E+02  0.0000E+00  1.8488E-03 -1.8488E-03  0.0000E+00
  1.5000E+02  0.0000E+00  1.7797E-03 -1.7797E-03  0.0000E+00
