title = "dataset transp-updrld"
variables = "time", "water mass", "water filled volume", "gas filled volume" 
zone t = "system mass -  variably saturated flow", f=point
  0.0000E+00  1.6716E+02  1.8421E-01  3.1079E-01
  1.0000E-10  1.6716E+02  1.8421E-01  3.1079E-01
  6.0000E-10  1.6716E+02  1.8421E-01  3.1079E-01
  3.1000E-09  1.6716E+02  1.8421E-01  3.1079E-01
  1.5600E-08  1.6716E+02  1.8421E-01  3.1079E-01
  7.8100E-08  1.6716E+02  1.8421E-01  3.1079E-01
  3.9060E-07  1.6716E+02  1.8421E-01  3.1079E-01
  1.9531E-06  1.6716E+02  1.8421E-01  3.1079E-01
  9.7656E-06  1.6716E+02  1.8421E-01  3.1079E-01
  4.8828E-05  1.6716E+02  1.8421E-01  3.1079E-01
  2.4414E-04  1.6717E+02  1.8421E-01  3.1079E-01
  1.2207E-03  1.6717E+02  1.8422E-01  3.1078E-01
  6.1035E-03  1.6722E+02  1.8426E-01  3.1074E-01
  3.0518E-02  1.6743E+02  1.8447E-01  3.1053E-01
  1.5259E-01  1.6848E+02  1.8553E-01  3.0947E-01
  5.8163E-01  1.7219E+02  1.8923E-01  3.0577E-01
  1.0000E+00  1.7580E+02  1.9286E-01  3.0214E-01
  2.0000E+00  1.7120E+02  1.8732E-01  3.0768E-01
  2.5975E+00  1.7726E+02  1.9325E-01  3.0175E-01
  3.0000E+00  1.8152E+02  1.9748E-01  2.9752E-01
  4.0000E+00  1.8035E+02  1.9641E-01  2.9859E-01
  5.0000E+00  1.7932E+02  1.9547E-01  2.9953E-01
  6.0000E+00  1.7834E+02  1.9456E-01  3.0044E-01
  7.0000E+00  1.7738E+02  1.9362E-01  3.0138E-01
  8.0000E+00  1.7642E+02  1.9266E-01  3.0234E-01
  9.0000E+00  1.7545E+02  1.9167E-01  3.0333E-01
  1.0000E+01  1.7449E+02  1.9066E-01  3.0434E-01
  1.1000E+01  1.7353E+02  1.8965E-01  3.0535E-01
  1.2000E+01  1.7258E+02  1.8864E-01  3.0636E-01
  1.3000E+01  1.7165E+02  1.8765E-01  3.0735E-01
  1.4000E+01  1.7074E+02  1.8668E-01  3.0832E-01
  1.5000E+01  1.6986E+02  1.8573E-01  3.0927E-01
  1.6000E+01  1.6901E+02  1.8481E-01  3.1019E-01
  1.7000E+01  1.6818E+02  1.8391E-01  3.1109E-01
  1.8000E+01  1.6738E+02  1.8304E-01  3.1196E-01
  1.9000E+01  1.6660E+02  1.8220E-01  3.1280E-01
  2.0000E+01  1.6584E+02  1.8138E-01  3.1362E-01
  2.1000E+01  1.6664E+02  1.8212E-01  3.1288E-01
  2.2000E+01  1.6593E+02  1.8137E-01  3.1363E-01
  2.3000E+01  1.6525E+02  1.8064E-01  3.1436E-01
  2.4000E+01  1.6909E+02  1.8447E-01  3.1053E-01
  2.5000E+01  1.6844E+02  1.8383E-01  3.1117E-01
  2.6000E+01  1.7618E+02  1.9168E-01  3.0332E-01
  2.7000E+01  1.9442E+02  2.1057E-01  2.8443E-01
  2.8000E+01  2.1244E+02  2.3002E-01  2.6498E-01
  2.9000E+01  2.1883E+02  2.3764E-01  2.5736E-01
  3.0000E+01  2.3430E+02  2.5455E-01  2.4045E-01
  3.1000E+01  2.3250E+02  2.5328E-01  2.4172E-01
  3.2000E+01  2.2980E+02  2.5060E-01  2.4440E-01
  3.3000E+01  2.2385E+02  2.4437E-01  2.5063E-01
  3.4000E+01  2.2268E+02  2.4297E-01  2.5203E-01
  3.5000E+01  2.1855E+02  2.3857E-01  2.5643E-01
  3.6000E+01  2.1389E+02  2.3360E-01  2.6140E-01
  3.7000E+01  2.0971E+02  2.2910E-01  2.6590E-01
  3.8000E+01  2.0596E+02  2.2503E-01  2.6997E-01
  3.9000E+01  2.0258E+02  2.2137E-01  2.7363E-01
  4.0000E+01  1.9954E+02  2.1806E-01  2.7694E-01
  4.1000E+01  1.9678E+02  2.1506E-01  2.7994E-01
  4.2000E+01  1.9426E+02  2.1231E-01  2.8269E-01
  4.3000E+01  1.9194E+02  2.0980E-01  2.8520E-01
  4.4000E+01  1.8981E+02  2.0747E-01  2.8753E-01
  4.5000E+01  1.8783E+02  2.0532E-01  2.8968E-01
  4.6000E+01  1.8600E+02  2.0332E-01  2.9168E-01
  4.7000E+01  1.8460E+02  2.0178E-01  2.9322E-01
  4.8000E+01  1.9404E+02  2.1130E-01  2.8370E-01
  4.9000E+01  2.0017E+02  2.1775E-01  2.7725E-01
  5.0000E+01  2.0016E+02  2.1800E-01  2.7700E-01
  5.1000E+01  2.0438E+02  2.2252E-01  2.7248E-01
  5.2000E+01  2.0256E+02  2.2085E-01  2.7415E-01
  5.3000E+01  2.0684E+02  2.2532E-01  2.6968E-01
  5.4000E+01  2.0422E+02  2.2276E-01  2.7224E-01
  5.5000E+01  2.0155E+02  2.2002E-01  2.7498E-01
  5.6000E+01  1.9892E+02  2.1726E-01  2.7774E-01
  5.7000E+01  1.9640E+02  2.1457E-01  2.8043E-01
  5.8000E+01  1.9403E+02  2.1201E-01  2.8299E-01
  5.9000E+01  1.9180E+02  2.0961E-01  2.8539E-01
  6.0000E+01  1.9204E+02  2.0971E-01  2.8529E-01
  6.1000E+01  1.9579E+02  2.1346E-01  2.8154E-01
  6.2000E+01  1.9384E+02  2.1151E-01  2.8349E-01
  6.3000E+01  1.9192E+02  2.0954E-01  2.8546E-01
  6.4000E+01  2.1665E+02  2.3514E-01  2.5986E-01
  6.4692E+01  2.1641E+02  2.3540E-01  2.5960E-01
  6.5000E+01  2.1624E+02  2.3540E-01  2.5960E-01
  6.6000E+01  2.4801E+02  2.6929E-01  2.2571E-01
  6.6805E+01  2.4275E+02  2.6450E-01  2.3050E-01
  6.7000E+01  2.4138E+02  2.6317E-01  2.3183E-01
  6.7976E+01  2.3358E+02  2.5499E-01  2.4001E-01
  6.8000E+01  2.3339E+02  2.5478E-01  2.4022E-01
  6.8122E+01  2.3313E+02  2.5447E-01  2.4053E-01
  6.8734E+01  2.3215E+02  2.5328E-01  2.4172E-01
  6.9000E+01  2.3177E+02  2.5283E-01  2.4217E-01
  7.0000E+01  2.2526E+02  2.4594E-01  2.4906E-01
  7.1000E+01  2.1955E+02  2.3980E-01  2.5520E-01
  7.2000E+01  2.1455E+02  2.3439E-01  2.6061E-01
  7.3000E+01  2.1018E+02  2.2964E-01  2.6536E-01
  7.4000E+01  2.1148E+02  2.3076E-01  2.6424E-01
  7.5000E+01  2.0790E+02  2.2698E-01  2.6802E-01
  7.6000E+01  2.0452E+02  2.2339E-01  2.7161E-01
  7.7000E+01  2.0140E+02  2.2004E-01  2.7496E-01
  7.8000E+01  1.9854E+02  2.1695E-01  2.7805E-01
  7.9000E+01  1.9662E+02  2.1482E-01  2.8018E-01
  8.0000E+01  1.9418E+02  2.1219E-01  2.8281E-01
  8.1000E+01  1.9192E+02  2.0975E-01  2.8525E-01
  8.2000E+01  1.8983E+02  2.0747E-01  2.8753E-01
  8.3000E+01  1.8787E+02  2.0535E-01  2.8965E-01
  8.4000E+01  1.8605E+02  2.0337E-01  2.9163E-01
  8.5000E+01  1.8434E+02  2.0151E-01  2.9349E-01
  8.6000E+01  1.8273E+02  1.9977E-01  2.9523E-01
  8.7000E+01  1.8122E+02  1.9812E-01  2.9688E-01
  8.8000E+01  1.7980E+02  1.9658E-01  2.9842E-01
  8.9000E+01  1.7845E+02  1.9511E-01  2.9989E-01
  9.0000E+01  1.7718E+02  1.9372E-01  3.0128E-01
  9.1000E+01  1.7597E+02  1.9241E-01  3.0259E-01
  9.2000E+01  1.7482E+02  1.9115E-01  3.0385E-01
  9.3000E+01  1.7372E+02  1.8996E-01  3.0504E-01
  9.4000E+01  1.7267E+02  1.8882E-01  3.0618E-01
  9.5000E+01  1.7167E+02  1.8773E-01  3.0727E-01
  9.6000E+01  1.7071E+02  1.8669E-01  3.0831E-01
  9.7000E+01  1.7771E+02  1.9368E-01  3.0132E-01
  9.8000E+01  1.8243E+02  1.9854E-01  2.9646E-01
  9.9000E+01  1.8318E+02  1.9946E-01  2.9554E-01
  1.0000E+02  1.8310E+02  1.9953E-01  2.9547E-01
  1.0100E+02  1.8210E+02  1.9862E-01  2.9638E-01
  1.0200E+02  1.8105E+02  1.9761E-01  2.9739E-01
  1.0300E+02  1.7996E+02  1.9651E-01  2.9849E-01
  1.0400E+02  1.7884E+02  1.9536E-01  2.9964E-01
  1.0500E+02  1.7772E+02  1.9419E-01  3.0081E-01
  1.0600E+02  1.7661E+02  1.9301E-01  3.0199E-01
  1.0700E+02  1.8798E+02  2.0452E-01  2.9048E-01
  1.0799E+02  1.8686E+02  2.0356E-01  2.9144E-01
  1.0800E+02  1.8685E+02  2.0356E-01  2.9144E-01
  1.0804E+02  1.8681E+02  2.0352E-01  2.9148E-01
  1.0823E+02  1.8659E+02  2.0333E-01  2.9167E-01
  1.0900E+02  1.8568E+02  2.0251E-01  2.9249E-01
  1.1000E+02  1.8445E+02  2.0131E-01  2.9369E-01
  1.1100E+02  1.8356E+02  2.0041E-01  2.9459E-01
  1.1200E+02  1.8226E+02  1.9908E-01  2.9592E-01
  1.1300E+02  1.8097E+02  1.9772E-01  2.9728E-01
  1.1400E+02  1.7970E+02  1.9637E-01  2.9863E-01
  1.1500E+02  1.7845E+02  1.9504E-01  2.9996E-01
  1.1600E+02  1.7724E+02  1.9375E-01  3.0125E-01
  1.1700E+02  1.7608E+02  1.9249E-01  3.0251E-01
  1.1800E+02  1.7496E+02  1.9128E-01  3.0372E-01
  1.1900E+02  1.7388E+02  1.9011E-01  3.0489E-01
  1.2000E+02  1.7284E+02  1.8899E-01  3.0601E-01
  1.2100E+02  1.7185E+02  1.8791E-01  3.0709E-01
  1.2200E+02  1.7089E+02  1.8687E-01  3.0813E-01
  1.2300E+02  1.7031E+02  1.8621E-01  3.0879E-01
  1.2400E+02  1.6942E+02  1.8526E-01  3.0974E-01
  1.2500E+02  1.6857E+02  1.8433E-01  3.1067E-01
  1.2600E+02  1.6775E+02  1.8345E-01  3.1155E-01
  1.2700E+02  1.6696E+02  1.8259E-01  3.1241E-01
  1.2800E+02  1.6619E+02  1.8176E-01  3.1324E-01
  1.2900E+02  1.6545E+02  1.8095E-01  3.1405E-01
  1.3000E+02  1.6473E+02  1.8017E-01  3.1483E-01
  1.3100E+02  1.6404E+02  1.7942E-01  3.1558E-01
  1.3200E+02  1.6337E+02  1.7869E-01  3.1631E-01
  1.3300E+02  1.6271E+02  1.7798E-01  3.1702E-01
  1.3400E+02  1.6441E+02  1.7963E-01  3.1537E-01
  1.3500E+02  1.7222E+02  1.8749E-01  3.0751E-01
  1.3600E+02  1.7161E+02  1.8697E-01  3.0803E-01
  1.3700E+02  1.7101E+02  1.8645E-01  3.0855E-01
  1.3800E+02  1.7040E+02  1.8590E-01  3.0910E-01
  1.3850E+02  1.8652E+02  2.0217E-01  2.9283E-01
  1.3882E+02  1.9694E+02  2.1284E-01  2.8216E-01
  1.3900E+02  2.0265E+02  2.1876E-01  2.7624E-01
  1.3975E+02  2.0212E+02  2.1907E-01  2.7593E-01
  1.4000E+02  2.0193E+02  2.1913E-01  2.7587E-01
  1.4100E+02  2.0091E+02  2.1864E-01  2.7636E-01
  1.4200E+02  1.9931E+02  2.1729E-01  2.7771E-01
  1.4300E+02  1.9738E+02  2.1540E-01  2.7960E-01
  1.4400E+02  1.9528E+02  2.1324E-01  2.8176E-01
  1.4500E+02  1.9316E+02  2.1101E-01  2.8399E-01
  1.4600E+02  1.9110E+02  2.0881E-01  2.8619E-01
  1.4700E+02  1.9313E+02  2.1076E-01  2.8424E-01
  1.4800E+02  1.9121E+02  2.0877E-01  2.8623E-01
  1.4900E+02  1.8936E+02  2.0683E-01  2.8817E-01
  1.5000E+02  1.8758E+02  2.0495E-01  2.9005E-01
