title = "dataset transp-updrld"
variables = "x", "y", "z", "vx", "vy", "vz"
zone t = "velocities, solution time =  1.000E+01 days        " i =   29, j =   29, k =    1,  f=point
  0.172414E-001  0.000000E+000  0.172414E-001 -0.123503E-013  0.000000E+000 -0.967375E-003
  0.517241E-001  0.000000E+000  0.172414E-001 -0.973693E-014  0.000000E+000 -0.967375E-003
  0.862069E-001  0.000000E+000  0.172414E-001  0.279003E-014  0.000000E+000 -0.967375E-003
  0.120690E+000  0.000000E+000  0.172414E-001  0.205942E-013  0.000000E+000 -0.967375E-003
  0.155172E+000  0.000000E+000  0.172414E-001  0.216109E-013  0.000000E+000 -0.967375E-003
  0.189655E+000  0.000000E+000  0.172414E-001  0.175176E-013  0.000000E+000 -0.967375E-003
  0.224138E+000  0.000000E+000  0.172414E-001  0.225378E-013  0.000000E+000 -0.967375E-003
  0.258621E+000  0.000000E+000  0.172414E-001  0.307030E-013  0.000000E+000 -0.967375E-003
  0.293103E+000  0.000000E+000  0.172414E-001  0.369261E-013  0.000000E+000 -0.967375E-003
  0.327586E+000  0.000000E+000  0.172414E-001  0.409238E-013  0.000000E+000 -0.967375E-003
  0.362069E+000  0.000000E+000  0.172414E-001  0.448764E-013  0.000000E+000 -0.967375E-003
  0.396552E+000  0.000000E+000  0.172414E-001  0.489216E-013  0.000000E+000 -0.967375E-003
  0.431034E+000  0.000000E+000  0.172414E-001  0.521285E-013  0.000000E+000 -0.967375E-003
  0.465517E+000  0.000000E+000  0.172414E-001  0.544577E-013  0.000000E+000 -0.967375E-003
  0.500000E+000  0.000000E+000  0.172414E-001  0.557328E-013  0.000000E+000 -0.967375E-003
  0.534483E+000  0.000000E+000  0.172414E-001  0.553674E-013  0.000000E+000 -0.967375E-003
  0.568966E+000  0.000000E+000  0.172414E-001  0.536919E-013  0.000000E+000 -0.967375E-003
  0.603448E+000  0.000000E+000  0.172414E-001  0.514639E-013  0.000000E+000 -0.967375E-003
  0.637931E+000  0.000000E+000  0.172414E-001  0.487193E-013  0.000000E+000 -0.967375E-003
  0.672414E+000  0.000000E+000  0.172414E-001  0.449495E-013  0.000000E+000 -0.967375E-003
  0.706897E+000  0.000000E+000  0.172414E-001  0.400657E-013  0.000000E+000 -0.967375E-003
  0.741379E+000  0.000000E+000  0.172414E-001  0.345061E-013  0.000000E+000 -0.967375E-003
  0.775862E+000  0.000000E+000  0.172414E-001  0.286921E-013  0.000000E+000 -0.967375E-003
  0.810345E+000  0.000000E+000  0.172414E-001  0.227763E-013  0.000000E+000 -0.967375E-003
  0.844828E+000  0.000000E+000  0.172414E-001  0.166929E-013  0.000000E+000 -0.967375E-003
  0.879310E+000  0.000000E+000  0.172414E-001  0.104755E-013  0.000000E+000 -0.967375E-003
  0.913793E+000  0.000000E+000  0.172414E-001  0.406432E-014  0.000000E+000 -0.967375E-003
  0.948276E+000  0.000000E+000  0.172414E-001 -0.424226E-014  0.000000E+000 -0.967375E-003
  0.991379E+000  0.000000E+000  0.172414E-001 -0.146942E-013  0.000000E+000 -0.967375E-003
  0.172414E-001  0.000000E+000  0.517241E-001 -0.578833E-013  0.000000E+000 -0.967399E-003
  0.517241E-001  0.000000E+000  0.517241E-001 -0.490885E-013  0.000000E+000 -0.967399E-003
  0.862069E-001  0.000000E+000  0.517241E-001  0.137088E-013  0.000000E+000 -0.967399E-003
  0.120690E+000  0.000000E+000  0.517241E-001  0.979645E-013  0.000000E+000 -0.967399E-003
  0.155172E+000  0.000000E+000  0.517241E-001  0.106869E-012  0.000000E+000 -0.967399E-003
  0.189655E+000  0.000000E+000  0.517241E-001  0.906806E-013  0.000000E+000 -0.967399E-003
  0.224138E+000  0.000000E+000  0.517241E-001  0.112162E-012  0.000000E+000 -0.967399E-003
  0.258621E+000  0.000000E+000  0.517241E-001  0.149312E-012  0.000000E+000 -0.967399E-003
  0.293103E+000  0.000000E+000  0.517241E-001  0.180567E-012  0.000000E+000 -0.967399E-003
  0.327586E+000  0.000000E+000  0.517241E-001  0.201754E-012  0.000000E+000 -0.967399E-003
  0.362069E+000  0.000000E+000  0.517241E-001  0.221657E-012  0.000000E+000 -0.967399E-003
  0.396552E+000  0.000000E+000  0.517241E-001  0.241377E-012  0.000000E+000 -0.967399E-003
  0.431034E+000  0.000000E+000  0.517241E-001  0.256840E-012  0.000000E+000 -0.967399E-003
  0.465517E+000  0.000000E+000  0.517241E-001  0.267703E-012  0.000000E+000 -0.967399E-003
  0.500000E+000  0.000000E+000  0.517241E-001  0.273599E-012  0.000000E+000 -0.967399E-003
  0.534483E+000  0.000000E+000  0.517241E-001  0.272064E-012  0.000000E+000 -0.967399E-003
  0.568966E+000  0.000000E+000  0.517241E-001  0.264232E-012  0.000000E+000 -0.967399E-003
  0.603448E+000  0.000000E+000  0.517241E-001  0.253344E-012  0.000000E+000 -0.967399E-003
  0.637931E+000  0.000000E+000  0.517241E-001  0.239611E-012  0.000000E+000 -0.967399E-003
  0.672414E+000  0.000000E+000  0.517241E-001  0.220885E-012  0.000000E+000 -0.967399E-003
  0.706897E+000  0.000000E+000  0.517241E-001  0.196787E-012  0.000000E+000 -0.967399E-003
  0.741379E+000  0.000000E+000  0.517241E-001  0.169345E-012  0.000000E+000 -0.967399E-003
  0.775862E+000  0.000000E+000  0.517241E-001  0.140694E-012  0.000000E+000 -0.967399E-003
  0.810345E+000  0.000000E+000  0.517241E-001  0.111635E-012  0.000000E+000 -0.967399E-003
  0.844828E+000  0.000000E+000  0.517241E-001  0.820907E-013  0.000000E+000 -0.967399E-003
  0.879310E+000  0.000000E+000  0.517241E-001  0.523409E-013  0.000000E+000 -0.967399E-003
  0.913793E+000  0.000000E+000  0.517241E-001  0.212175E-013  0.000000E+000 -0.967399E-003
  0.948276E+000  0.000000E+000  0.517241E-001 -0.203098E-013  0.000000E+000 -0.967399E-003
  0.991379E+000  0.000000E+000  0.517241E-001 -0.686154E-013  0.000000E+000 -0.967399E-003
  0.172414E-001  0.000000E+000  0.862069E-001 -0.137359E-012  0.000000E+000 -0.967131E-003
  0.517241E-001  0.000000E+000  0.862069E-001 -0.124450E-012  0.000000E+000 -0.967131E-003
  0.862069E-001  0.000000E+000  0.862069E-001  0.329942E-013  0.000000E+000 -0.967131E-003
  0.120690E+000  0.000000E+000  0.862069E-001  0.222514E-012  0.000000E+000 -0.967131E-003
  0.155172E+000  0.000000E+000  0.862069E-001  0.261084E-012  0.000000E+000 -0.967131E-003
  0.189655E+000  0.000000E+000  0.862069E-001  0.243373E-012  0.000000E+000 -0.967131E-003
  0.224138E+000  0.000000E+000  0.862069E-001  0.286214E-012  0.000000E+000 -0.967131E-003
  0.258621E+000  0.000000E+000  0.862069E-001  0.363415E-012  0.000000E+000 -0.967131E-003
  0.293103E+000  0.000000E+000  0.862069E-001  0.440204E-012  0.000000E+000 -0.967131E-003
  0.327586E+000  0.000000E+000  0.862069E-001  0.498340E-012  0.000000E+000 -0.967131E-003
  0.362069E+000  0.000000E+000  0.862069E-001  0.549128E-012  0.000000E+000 -0.967131E-003
  0.396552E+000  0.000000E+000  0.862069E-001  0.596469E-012  0.000000E+000 -0.967131E-003
  0.431034E+000  0.000000E+000  0.862069E-001  0.633289E-012  0.000000E+000 -0.967131E-003
  0.465517E+000  0.000000E+000  0.862069E-001  0.658608E-012  0.000000E+000 -0.967131E-003
  0.500000E+000  0.000000E+000  0.862069E-001  0.672076E-012  0.000000E+000 -0.967131E-003
  0.534483E+000  0.000000E+000  0.862069E-001  0.669090E-012  0.000000E+000 -0.967131E-003
  0.568966E+000  0.000000E+000  0.862069E-001  0.651219E-012  0.000000E+000 -0.967131E-003
  0.603448E+000  0.000000E+000  0.862069E-001  0.624581E-012  0.000000E+000 -0.967131E-003
  0.637931E+000  0.000000E+000  0.862069E-001  0.589892E-012  0.000000E+000 -0.967131E-003
  0.672414E+000  0.000000E+000  0.862069E-001  0.543190E-012  0.000000E+000 -0.967131E-003
  0.706897E+000  0.000000E+000  0.862069E-001  0.483832E-012  0.000000E+000 -0.967131E-003
  0.741379E+000  0.000000E+000  0.862069E-001  0.416251E-012  0.000000E+000 -0.967131E-003
  0.775862E+000  0.000000E+000  0.862069E-001  0.345461E-012  0.000000E+000 -0.967131E-003
  0.810345E+000  0.000000E+000  0.862069E-001  0.273932E-012  0.000000E+000 -0.967131E-003
  0.844828E+000  0.000000E+000  0.862069E-001  0.202614E-012  0.000000E+000 -0.967131E-003
  0.879310E+000  0.000000E+000  0.862069E-001  0.132752E-012  0.000000E+000 -0.967131E-003
  0.913793E+000  0.000000E+000  0.862069E-001  0.565307E-013  0.000000E+000 -0.967131E-003
  0.948276E+000  0.000000E+000  0.862069E-001 -0.510097E-013  0.000000E+000 -0.967131E-003
  0.991379E+000  0.000000E+000  0.862069E-001 -0.159712E-012  0.000000E+000 -0.967131E-003
  0.172414E-001  0.000000E+000  0.120690E+000 -0.250018E-012  0.000000E+000 -0.966110E-003
  0.517241E-001  0.000000E+000  0.120690E+000 -0.235269E-012  0.000000E+000 -0.966110E-003
  0.862069E-001  0.000000E+000  0.120690E+000  0.557631E-013  0.000000E+000 -0.966110E-003
  0.120690E+000  0.000000E+000  0.120690E+000  0.351381E-012  0.000000E+000 -0.966110E-003
  0.155172E+000  0.000000E+000  0.120690E+000  0.452896E-012  0.000000E+000 -0.966110E-003
  0.189655E+000  0.000000E+000  0.120690E+000  0.475421E-012  0.000000E+000 -0.966110E-003
  0.224138E+000  0.000000E+000  0.120690E+000  0.535915E-012  0.000000E+000 -0.966110E-003
  0.258621E+000  0.000000E+000  0.120690E+000  0.642527E-012  0.000000E+000 -0.966110E-003
  0.293103E+000  0.000000E+000  0.120690E+000  0.774016E-012  0.000000E+000 -0.966110E-003
  0.327586E+000  0.000000E+000  0.120690E+000  0.887459E-012  0.000000E+000 -0.966110E-003
  0.362069E+000  0.000000E+000  0.120690E+000  0.981079E-012  0.000000E+000 -0.966110E-003
  0.396552E+000  0.000000E+000  0.120690E+000  0.106197E-011  0.000000E+000 -0.966110E-003
  0.431034E+000  0.000000E+000  0.120690E+000  0.112457E-011  0.000000E+000 -0.966110E-003
  0.465517E+000  0.000000E+000  0.120690E+000  0.116802E-011  0.000000E+000 -0.966110E-003
  0.500000E+000  0.000000E+000  0.120690E+000  0.119100E-011  0.000000E+000 -0.966110E-003
  0.534483E+000  0.000000E+000  0.120690E+000  0.118706E-011  0.000000E+000 -0.966110E-003
  0.568966E+000  0.000000E+000  0.120690E+000  0.115756E-011  0.000000E+000 -0.966110E-003
  0.603448E+000  0.000000E+000  0.120690E+000  0.111048E-011  0.000000E+000 -0.966110E-003
  0.637931E+000  0.000000E+000  0.120690E+000  0.104746E-011  0.000000E+000 -0.966110E-003
  0.672414E+000  0.000000E+000  0.120690E+000  0.963705E-012  0.000000E+000 -0.966110E-003
  0.706897E+000  0.000000E+000  0.120690E+000  0.858511E-012  0.000000E+000 -0.966110E-003
  0.741379E+000  0.000000E+000  0.120690E+000  0.738550E-012  0.000000E+000 -0.966110E-003
  0.775862E+000  0.000000E+000  0.120690E+000  0.612187E-012  0.000000E+000 -0.966110E-003
  0.810345E+000  0.000000E+000  0.120690E+000  0.485280E-012  0.000000E+000 -0.966110E-003
  0.844828E+000  0.000000E+000  0.120690E+000  0.362416E-012  0.000000E+000 -0.966110E-003
  0.879310E+000  0.000000E+000  0.120690E+000  0.246341E-012  0.000000E+000 -0.966110E-003
  0.913793E+000  0.000000E+000  0.120690E+000  0.109622E-012  0.000000E+000 -0.966110E-003
  0.948276E+000  0.000000E+000  0.120690E+000 -0.101272E-012  0.000000E+000 -0.966110E-003
  0.991379E+000  0.000000E+000  0.120690E+000 -0.278910E-012  0.000000E+000 -0.966110E-003
  0.172414E-001  0.000000E+000  0.155172E+000 -0.408298E-012  0.000000E+000 -0.963809E-003
  0.517241E-001  0.000000E+000  0.155172E+000 -0.383428E-012  0.000000E+000 -0.963809E-003
  0.862069E-001  0.000000E+000  0.155172E+000  0.768299E-013  0.000000E+000 -0.963809E-003
  0.120690E+000  0.000000E+000  0.155172E+000  0.453636E-012  0.000000E+000 -0.963809E-003
  0.155172E+000  0.000000E+000  0.155172E+000  0.651749E-012  0.000000E+000 -0.963809E-003
  0.189655E+000  0.000000E+000  0.155172E+000  0.776024E-012  0.000000E+000 -0.963809E-003
  0.224138E+000  0.000000E+000  0.155172E+000  0.853868E-012  0.000000E+000 -0.963809E-003
  0.258621E+000  0.000000E+000  0.155172E+000  0.974104E-012  0.000000E+000 -0.963809E-003
  0.293103E+000  0.000000E+000  0.155172E+000  0.115761E-011  0.000000E+000 -0.963809E-003
  0.327586E+000  0.000000E+000  0.155172E+000  0.133525E-011  0.000000E+000 -0.963809E-003
  0.362069E+000  0.000000E+000  0.155172E+000  0.147936E-011  0.000000E+000 -0.963809E-003
  0.396552E+000  0.000000E+000  0.155172E+000  0.159747E-011  0.000000E+000 -0.963809E-003
  0.431034E+000  0.000000E+000  0.155172E+000  0.168891E-011  0.000000E+000 -0.963809E-003
  0.465517E+000  0.000000E+000  0.155172E+000  0.175409E-011  0.000000E+000 -0.963809E-003
  0.500000E+000  0.000000E+000  0.155172E+000  0.178861E-011  0.000000E+000 -0.963809E-003
  0.534483E+000  0.000000E+000  0.155172E+000  0.178399E-011  0.000000E+000 -0.963809E-003
  0.568966E+000  0.000000E+000  0.155172E+000  0.174173E-011  0.000000E+000 -0.963809E-003
  0.603448E+000  0.000000E+000  0.155172E+000  0.167122E-011  0.000000E+000 -0.963809E-003
  0.637931E+000  0.000000E+000  0.155172E+000  0.157516E-011  0.000000E+000 -0.963809E-003
  0.672414E+000  0.000000E+000  0.155172E+000  0.144870E-011  0.000000E+000 -0.963809E-003
  0.706897E+000  0.000000E+000  0.155172E+000  0.129108E-011  0.000000E+000 -0.963809E-003
  0.741379E+000  0.000000E+000  0.155172E+000  0.111073E-011  0.000000E+000 -0.963809E-003
  0.775862E+000  0.000000E+000  0.155172E+000  0.919656E-012  0.000000E+000 -0.963809E-003
  0.810345E+000  0.000000E+000  0.155172E+000  0.729503E-012  0.000000E+000 -0.963809E-003
  0.844828E+000  0.000000E+000  0.155172E+000  0.552048E-012  0.000000E+000 -0.963809E-003
  0.879310E+000  0.000000E+000  0.155172E+000  0.389522E-012  0.000000E+000 -0.963809E-003
  0.913793E+000  0.000000E+000  0.155172E+000  0.174785E-012  0.000000E+000 -0.963809E-003
  0.948276E+000  0.000000E+000  0.155172E+000 -0.184575E-012  0.000000E+000 -0.963809E-003
  0.991379E+000  0.000000E+000  0.155172E+000 -0.436312E-012  0.000000E+000 -0.963809E-003
  0.172414E-001  0.000000E+000  0.189655E+000 -0.614490E-012  0.000000E+000 -0.959665E-003
  0.517241E-001  0.000000E+000  0.189655E+000 -0.552597E-012  0.000000E+000 -0.959665E-003
  0.862069E-001  0.000000E+000  0.189655E+000  0.925610E-013  0.000000E+000 -0.959665E-003
  0.120690E+000  0.000000E+000  0.189655E+000  0.499105E-012  0.000000E+000 -0.959665E-003
  0.155172E+000  0.000000E+000  0.189655E+000  0.830139E-012  0.000000E+000 -0.959665E-003
  0.189655E+000  0.000000E+000  0.189655E+000  0.113214E-011  0.000000E+000 -0.959665E-003
  0.224138E+000  0.000000E+000  0.189655E+000  0.123105E-011  0.000000E+000 -0.959665E-003
  0.258621E+000  0.000000E+000  0.189655E+000  0.135527E-011  0.000000E+000 -0.959665E-003
  0.293103E+000  0.000000E+000  0.189655E+000  0.158289E-011  0.000000E+000 -0.959665E-003
  0.327586E+000  0.000000E+000  0.189655E+000  0.182235E-011  0.000000E+000 -0.959665E-003
  0.362069E+000  0.000000E+000  0.189655E+000  0.201970E-011  0.000000E+000 -0.959665E-003
  0.396552E+000  0.000000E+000  0.189655E+000  0.218014E-011  0.000000E+000 -0.959665E-003
  0.431034E+000  0.000000E+000  0.189655E+000  0.230564E-011  0.000000E+000 -0.959665E-003
  0.465517E+000  0.000000E+000  0.189655E+000  0.239703E-011  0.000000E+000 -0.959665E-003
  0.500000E+000  0.000000E+000  0.189655E+000  0.244465E-011  0.000000E+000 -0.959665E-003
  0.534483E+000  0.000000E+000  0.189655E+000  0.243865E-011  0.000000E+000 -0.959665E-003
  0.568966E+000  0.000000E+000  0.189655E+000  0.238224E-011  0.000000E+000 -0.959665E-003
  0.603448E+000  0.000000E+000  0.189655E+000  0.228620E-011  0.000000E+000 -0.959665E-003
  0.637931E+000  0.000000E+000  0.189655E+000  0.215403E-011  0.000000E+000 -0.959665E-003
  0.672414E+000  0.000000E+000  0.189655E+000  0.198105E-011  0.000000E+000 -0.959665E-003
  0.706897E+000  0.000000E+000  0.189655E+000  0.176662E-011  0.000000E+000 -0.959665E-003
  0.741379E+000  0.000000E+000  0.189655E+000  0.152040E-011  0.000000E+000 -0.959665E-003
  0.775862E+000  0.000000E+000  0.189655E+000  0.125812E-011  0.000000E+000 -0.959665E-003
  0.810345E+000  0.000000E+000  0.189655E+000  0.999697E-012  0.000000E+000 -0.959665E-003
  0.844828E+000  0.000000E+000  0.189655E+000  0.767269E-012  0.000000E+000 -0.959665E-003
  0.879310E+000  0.000000E+000  0.189655E+000  0.555667E-012  0.000000E+000 -0.959665E-003
  0.913793E+000  0.000000E+000  0.189655E+000  0.234343E-012  0.000000E+000 -0.959665E-003
  0.948276E+000  0.000000E+000  0.189655E+000 -0.312484E-012  0.000000E+000 -0.959665E-003
  0.991379E+000  0.000000E+000  0.189655E+000 -0.627944E-012  0.000000E+000 -0.959665E-003
  0.172414E-001  0.000000E+000  0.224138E+000 -0.852076E-012  0.000000E+000 -0.953113E-003
  0.517241E-001  0.000000E+000  0.224138E+000 -0.701449E-012  0.000000E+000 -0.953113E-003
  0.862069E-001  0.000000E+000  0.224138E+000  0.105170E-012  0.000000E+000 -0.953113E-003
  0.120690E+000  0.000000E+000  0.224138E+000  0.460916E-012  0.000000E+000 -0.953113E-003
  0.155172E+000  0.000000E+000  0.224138E+000  0.967195E-012  0.000000E+000 -0.953113E-003
  0.189655E+000  0.000000E+000  0.224138E+000  0.153563E-011  0.000000E+000 -0.953113E-003
  0.224138E+000  0.000000E+000  0.224138E+000  0.165038E-011  0.000000E+000 -0.953113E-003
  0.258621E+000  0.000000E+000  0.224138E+000  0.177883E-011  0.000000E+000 -0.953113E-003
  0.293103E+000  0.000000E+000  0.224138E+000  0.204772E-011  0.000000E+000 -0.953113E-003
  0.327586E+000  0.000000E+000  0.224138E+000  0.234138E-011  0.000000E+000 -0.953113E-003
  0.362069E+000  0.000000E+000  0.224138E+000  0.258990E-011  0.000000E+000 -0.953113E-003
  0.396552E+000  0.000000E+000  0.224138E+000  0.279783E-011  0.000000E+000 -0.953113E-003
  0.431034E+000  0.000000E+000  0.224138E+000  0.296412E-011  0.000000E+000 -0.953113E-003
  0.465517E+000  0.000000E+000  0.224138E+000  0.308700E-011  0.000000E+000 -0.953113E-003
  0.500000E+000  0.000000E+000  0.224138E+000  0.314909E-011  0.000000E+000 -0.953113E-003
  0.534483E+000  0.000000E+000  0.224138E+000  0.314041E-011  0.000000E+000 -0.953113E-003
  0.568966E+000  0.000000E+000  0.224138E+000  0.306826E-011  0.000000E+000 -0.953113E-003
  0.603448E+000  0.000000E+000  0.224138E+000  0.294491E-011  0.000000E+000 -0.953113E-003
  0.637931E+000  0.000000E+000  0.224138E+000  0.277404E-011  0.000000E+000 -0.953113E-003
  0.672414E+000  0.000000E+000  0.224138E+000  0.255150E-011  0.000000E+000 -0.953113E-003
  0.706897E+000  0.000000E+000  0.224138E+000  0.227731E-011  0.000000E+000 -0.953113E-003
  0.741379E+000  0.000000E+000  0.224138E+000  0.196182E-011  0.000000E+000 -0.953113E-003
  0.775862E+000  0.000000E+000  0.224138E+000  0.162371E-011  0.000000E+000 -0.953113E-003
  0.810345E+000  0.000000E+000  0.224138E+000  0.129256E-011  0.000000E+000 -0.953113E-003
  0.844828E+000  0.000000E+000  0.224138E+000  0.100191E-011  0.000000E+000 -0.953113E-003
  0.879310E+000  0.000000E+000  0.224138E+000  0.726999E-012  0.000000E+000 -0.953113E-003
  0.913793E+000  0.000000E+000  0.224138E+000  0.258854E-012  0.000000E+000 -0.953113E-003
  0.948276E+000  0.000000E+000  0.224138E+000 -0.471550E-012  0.000000E+000 -0.953113E-003
  0.991379E+000  0.000000E+000  0.224138E+000 -0.787238E-012  0.000000E+000 -0.953113E-003
  0.172414E-001  0.000000E+000  0.258621E+000 -0.108127E-011  0.000000E+000 -0.943617E-003
  0.517241E-001  0.000000E+000  0.258621E+000 -0.769771E-012  0.000000E+000 -0.943617E-003
  0.862069E-001  0.000000E+000  0.258621E+000  0.128729E-012  0.000000E+000 -0.943617E-003
  0.120690E+000  0.000000E+000  0.258621E+000  0.335872E-012  0.000000E+000 -0.943617E-003
  0.155172E+000  0.000000E+000  0.258621E+000  0.106179E-011  0.000000E+000 -0.943617E-003
  0.189655E+000  0.000000E+000  0.258621E+000  0.198319E-011  0.000000E+000 -0.943617E-003
  0.224138E+000  0.000000E+000  0.258621E+000  0.209280E-011  0.000000E+000 -0.943617E-003
  0.258621E+000  0.000000E+000  0.258621E+000  0.223365E-011  0.000000E+000 -0.943617E-003
  0.293103E+000  0.000000E+000  0.258621E+000  0.255334E-011  0.000000E+000 -0.943617E-003
  0.327586E+000  0.000000E+000  0.258621E+000  0.289534E-011  0.000000E+000 -0.943617E-003
  0.362069E+000  0.000000E+000  0.258621E+000  0.318803E-011  0.000000E+000 -0.943617E-003
  0.396552E+000  0.000000E+000  0.258621E+000  0.344511E-011  0.000000E+000 -0.943617E-003
  0.431034E+000  0.000000E+000  0.258621E+000  0.365756E-011  0.000000E+000 -0.943617E-003
  0.465517E+000  0.000000E+000  0.258621E+000  0.381731E-011  0.000000E+000 -0.943617E-003
  0.500000E+000  0.000000E+000  0.258621E+000  0.389611E-011  0.000000E+000 -0.943617E-003
  0.534483E+000  0.000000E+000  0.258621E+000  0.388405E-011  0.000000E+000 -0.943617E-003
  0.568966E+000  0.000000E+000  0.258621E+000  0.379464E-011  0.000000E+000 -0.943617E-003
  0.603448E+000  0.000000E+000  0.258621E+000  0.364203E-011  0.000000E+000 -0.943617E-003
  0.637931E+000  0.000000E+000  0.258621E+000  0.342955E-011  0.000000E+000 -0.943617E-003
  0.672414E+000  0.000000E+000  0.258621E+000  0.315453E-011  0.000000E+000 -0.943617E-003
  0.706897E+000  0.000000E+000  0.258621E+000  0.281876E-011  0.000000E+000 -0.943617E-003
  0.741379E+000  0.000000E+000  0.258621E+000  0.243251E-011  0.000000E+000 -0.943617E-003
  0.775862E+000  0.000000E+000  0.258621E+000  0.201511E-011  0.000000E+000 -0.943617E-003
  0.810345E+000  0.000000E+000  0.258621E+000  0.160466E-011  0.000000E+000 -0.943617E-003
  0.844828E+000  0.000000E+000  0.258621E+000  0.124390E-011  0.000000E+000 -0.943617E-003
  0.879310E+000  0.000000E+000  0.258621E+000  0.872763E-012  0.000000E+000 -0.943617E-003
  0.913793E+000  0.000000E+000  0.258621E+000  0.214410E-012  0.000000E+000 -0.943617E-003
  0.948276E+000  0.000000E+000  0.258621E+000 -0.510858E-012  0.000000E+000 -0.943617E-003
  0.991379E+000  0.000000E+000  0.258621E+000 -0.934835E-012  0.000000E+000 -0.943617E-003
  0.172414E-001  0.000000E+000  0.293103E+000 -0.124333E-011  0.000000E+000 -0.930695E-003
  0.517241E-001  0.000000E+000  0.293103E+000 -0.695070E-012  0.000000E+000 -0.930695E-003
  0.862069E-001  0.000000E+000  0.293103E+000  0.186524E-012  0.000000E+000 -0.930695E-003
  0.120690E+000  0.000000E+000  0.293103E+000  0.157262E-012  0.000000E+000 -0.930695E-003
  0.155172E+000  0.000000E+000  0.293103E+000  0.114403E-011  0.000000E+000 -0.930695E-003
  0.189655E+000  0.000000E+000  0.293103E+000  0.247536E-011  0.000000E+000 -0.930695E-003
  0.224138E+000  0.000000E+000  0.293103E+000  0.255115E-011  0.000000E+000 -0.930695E-003
  0.258621E+000  0.000000E+000  0.293103E+000  0.271449E-011  0.000000E+000 -0.930695E-003
  0.293103E+000  0.000000E+000  0.293103E+000  0.310616E-011  0.000000E+000 -0.930695E-003
  0.327586E+000  0.000000E+000  0.293103E+000  0.349500E-011  0.000000E+000 -0.930695E-003
  0.362069E+000  0.000000E+000  0.293103E+000  0.381951E-011  0.000000E+000 -0.930695E-003
  0.396552E+000  0.000000E+000  0.293103E+000  0.412136E-011  0.000000E+000 -0.930695E-003
  0.431034E+000  0.000000E+000  0.293103E+000  0.438164E-011  0.000000E+000 -0.930695E-003
  0.465517E+000  0.000000E+000  0.293103E+000  0.458272E-011  0.000000E+000 -0.930695E-003
  0.500000E+000  0.000000E+000  0.293103E+000  0.468189E-011  0.000000E+000 -0.930695E-003
  0.534483E+000  0.000000E+000  0.293103E+000  0.466737E-011  0.000000E+000 -0.930695E-003
  0.568966E+000  0.000000E+000  0.293103E+000  0.455960E-011  0.000000E+000 -0.930695E-003
  0.603448E+000  0.000000E+000  0.293103E+000  0.437517E-011  0.000000E+000 -0.930695E-003
  0.637931E+000  0.000000E+000  0.293103E+000  0.411745E-011  0.000000E+000 -0.930695E-003
  0.672414E+000  0.000000E+000  0.293103E+000  0.378685E-011  0.000000E+000 -0.930695E-003
  0.706897E+000  0.000000E+000  0.293103E+000  0.338856E-011  0.000000E+000 -0.930695E-003
  0.741379E+000  0.000000E+000  0.293103E+000  0.293160E-011  0.000000E+000 -0.930695E-003
  0.775862E+000  0.000000E+000  0.293103E+000  0.243187E-011  0.000000E+000 -0.930695E-003
  0.810345E+000  0.000000E+000  0.293103E+000  0.193096E-011  0.000000E+000 -0.930695E-003
  0.844828E+000  0.000000E+000  0.293103E+000  0.148171E-011  0.000000E+000 -0.930695E-003
  0.879310E+000  0.000000E+000  0.293103E+000  0.969321E-012  0.000000E+000 -0.930695E-003
  0.913793E+000  0.000000E+000  0.293103E+000  0.209904E-012  0.000000E+000 -0.930695E-003
  0.948276E+000  0.000000E+000  0.293103E+000 -0.452337E-012  0.000000E+000 -0.930695E-003
  0.991379E+000  0.000000E+000  0.293103E+000 -0.971068E-012  0.000000E+000 -0.930695E-003
  0.172414E-001  0.000000E+000  0.327586E+000 -0.129278E-011  0.000000E+000 -0.913941E-003
  0.517241E-001  0.000000E+000  0.327586E+000 -0.449937E-012  0.000000E+000 -0.913941E-003
  0.862069E-001  0.000000E+000  0.327586E+000  0.293066E-012  0.000000E+000 -0.913941E-003
  0.120690E+000  0.000000E+000  0.327586E+000 -0.274914E-013  0.000000E+000 -0.913941E-003
  0.155172E+000  0.000000E+000  0.327586E+000  0.127245E-011  0.000000E+000 -0.913941E-003
  0.189655E+000  0.000000E+000  0.327586E+000  0.300672E-011  0.000000E+000 -0.913941E-003
  0.224138E+000  0.000000E+000  0.327586E+000  0.302747E-011  0.000000E+000 -0.913941E-003
  0.258621E+000  0.000000E+000  0.327586E+000  0.322730E-011  0.000000E+000 -0.913941E-003
  0.293103E+000  0.000000E+000  0.327586E+000  0.371851E-011  0.000000E+000 -0.913941E-003
  0.327586E+000  0.000000E+000  0.327586E+000  0.415524E-011  0.000000E+000 -0.913941E-003
  0.362069E+000  0.000000E+000  0.327586E+000  0.449287E-011  0.000000E+000 -0.913941E-003
  0.396552E+000  0.000000E+000  0.327586E+000  0.482802E-011  0.000000E+000 -0.913941E-003
  0.431034E+000  0.000000E+000  0.327586E+000  0.513384E-011  0.000000E+000 -0.913941E-003
  0.465517E+000  0.000000E+000  0.327586E+000  0.537919E-011  0.000000E+000 -0.913941E-003
  0.500000E+000  0.000000E+000  0.327586E+000  0.550369E-011  0.000000E+000 -0.913941E-003
  0.534483E+000  0.000000E+000  0.327586E+000  0.548971E-011  0.000000E+000 -0.913941E-003
  0.568966E+000  0.000000E+000  0.327586E+000  0.536309E-011  0.000000E+000 -0.913941E-003
  0.603448E+000  0.000000E+000  0.327586E+000  0.514357E-011  0.000000E+000 -0.913941E-003
  0.637931E+000  0.000000E+000  0.327586E+000  0.483610E-011  0.000000E+000 -0.913941E-003
  0.672414E+000  0.000000E+000  0.327586E+000  0.444652E-011  0.000000E+000 -0.913941E-003
  0.706897E+000  0.000000E+000  0.327586E+000  0.398531E-011  0.000000E+000 -0.913941E-003
  0.741379E+000  0.000000E+000  0.327586E+000  0.345887E-011  0.000000E+000 -0.913941E-003
  0.775862E+000  0.000000E+000  0.327586E+000  0.287474E-011  0.000000E+000 -0.913941E-003
  0.810345E+000  0.000000E+000  0.327586E+000  0.227222E-011  0.000000E+000 -0.913941E-003
  0.844828E+000  0.000000E+000  0.327586E+000  0.171139E-011  0.000000E+000 -0.913941E-003
  0.879310E+000  0.000000E+000  0.327586E+000  0.105312E-011  0.000000E+000 -0.913941E-003
  0.913793E+000  0.000000E+000  0.327586E+000  0.289078E-012  0.000000E+000 -0.913941E-003
  0.948276E+000  0.000000E+000  0.327586E+000 -0.341789E-012  0.000000E+000 -0.913941E-003
  0.991379E+000  0.000000E+000  0.327586E+000 -0.716586E-012  0.000000E+000 -0.913941E-003
  0.172414E-001  0.000000E+000  0.362069E+000 -0.125097E-011  0.000000E+000 -0.893036E-003
  0.517241E-001  0.000000E+000  0.362069E+000 -0.772372E-013  0.000000E+000 -0.893036E-003
  0.862069E-001  0.000000E+000  0.362069E+000  0.405049E-012  0.000000E+000 -0.893036E-003
  0.120690E+000  0.000000E+000  0.362069E+000 -0.192407E-012  0.000000E+000 -0.893036E-003
  0.155172E+000  0.000000E+000  0.362069E+000  0.151754E-011  0.000000E+000 -0.893036E-003
  0.189655E+000  0.000000E+000  0.362069E+000  0.353723E-011  0.000000E+000 -0.893036E-003
  0.224138E+000  0.000000E+000  0.362069E+000  0.350368E-011  0.000000E+000 -0.893036E-003
  0.258621E+000  0.000000E+000  0.362069E+000  0.377230E-011  0.000000E+000 -0.893036E-003
  0.293103E+000  0.000000E+000  0.362069E+000  0.440096E-011  0.000000E+000 -0.893036E-003
  0.327586E+000  0.000000E+000  0.362069E+000  0.489023E-011  0.000000E+000 -0.893036E-003
  0.362069E+000  0.000000E+000  0.362069E+000  0.521587E-011  0.000000E+000 -0.893036E-003
  0.396552E+000  0.000000E+000  0.362069E+000  0.556531E-011  0.000000E+000 -0.893036E-003
  0.431034E+000  0.000000E+000  0.362069E+000  0.591140E-011  0.000000E+000 -0.893036E-003
  0.465517E+000  0.000000E+000  0.362069E+000  0.620298E-011  0.000000E+000 -0.893036E-003
  0.500000E+000  0.000000E+000  0.362069E+000  0.635893E-011  0.000000E+000 -0.893036E-003
  0.534483E+000  0.000000E+000  0.362069E+000  0.635057E-011  0.000000E+000 -0.893036E-003
  0.568966E+000  0.000000E+000  0.362069E+000  0.620537E-011  0.000000E+000 -0.893036E-003
  0.603448E+000  0.000000E+000  0.362069E+000  0.594680E-011  0.000000E+000 -0.893036E-003
  0.637931E+000  0.000000E+000  0.362069E+000  0.558421E-011  0.000000E+000 -0.893036E-003
  0.672414E+000  0.000000E+000  0.362069E+000  0.513189E-011  0.000000E+000 -0.893036E-003
  0.706897E+000  0.000000E+000  0.362069E+000  0.460736E-011  0.000000E+000 -0.893036E-003
  0.741379E+000  0.000000E+000  0.362069E+000  0.401351E-011  0.000000E+000 -0.893036E-003
  0.775862E+000  0.000000E+000  0.362069E+000  0.334504E-011  0.000000E+000 -0.893036E-003
  0.810345E+000  0.000000E+000  0.362069E+000  0.263215E-011  0.000000E+000 -0.893036E-003
  0.844828E+000  0.000000E+000  0.362069E+000  0.193716E-011  0.000000E+000 -0.893036E-003
  0.879310E+000  0.000000E+000  0.362069E+000  0.117688E-011  0.000000E+000 -0.893036E-003
  0.913793E+000  0.000000E+000  0.362069E+000  0.405285E-012  0.000000E+000 -0.893036E-003
  0.948276E+000  0.000000E+000  0.362069E+000 -0.937626E-013  0.000000E+000 -0.893036E-003
  0.991379E+000  0.000000E+000  0.362069E+000 -0.376196E-012  0.000000E+000 -0.893036E-003
  0.172414E-001  0.000000E+000  0.396552E+000 -0.119202E-011  0.000000E+000 -0.867757E-003
  0.517241E-001  0.000000E+000  0.396552E+000  0.324862E-012  0.000000E+000 -0.867757E-003
  0.862069E-001  0.000000E+000  0.396552E+000  0.434269E-012  0.000000E+000 -0.867757E-003
  0.120690E+000  0.000000E+000  0.396552E+000 -0.335457E-012  0.000000E+000 -0.867757E-003
  0.155172E+000  0.000000E+000  0.396552E+000  0.190935E-011  0.000000E+000 -0.867757E-003
  0.189655E+000  0.000000E+000  0.396552E+000  0.400420E-011  0.000000E+000 -0.867757E-003
  0.224138E+000  0.000000E+000  0.396552E+000  0.392968E-011  0.000000E+000 -0.867757E-003
  0.258621E+000  0.000000E+000  0.396552E+000  0.431982E-011  0.000000E+000 -0.867757E-003