title = "dataset transp-updrld"
variables = "x", "y", "z", "h_w", "p_w", "s_w", "theta_a", "s_a", "theta_g", "q_root"
zone t = "Flow variables, solution time =  1.500E+02 days        " i =   30, j =   30, k =    1,  f=point
  0.000000E+000  0.000000E+000  0.000000E+000 -0.100000E+003 -0.100000E+003  0.214462E+000  0.115809E+000  0.785538E+000  0.424191E+000  0.000000E+000
  0.344828E-001  0.000000E+000  0.000000E+000 -0.100000E+003 -0.100000E+003  0.214462E+000  0.115809E+000  0.785538E+000  0.424191E+000  0.000000E+000
  0.689655E-001  0.000000E+000  0.000000E+000 -0.100000E+003 -0.100000E+003  0.214462E+000  0.115809E+000  0.785538E+000  0.424191E+000  0.000000E+000
  0.103448E+000  0.000000E+000  0.000000E+000 -0.100000E+003 -0.100000E+003  0.214462E+000  0.115809E+000  0.785538E+000  0.424191E+000  0.000000E+000
  0.137931E+000  0.000000E+000  0.000000E+000 -0.100000E+003 -0.100000E+003  0.214462E+000  0.115809E+000  0.785538E+000  0.424191E+000  0.000000E+000
  0.172414E+000  0.000000E+000  0.000000E+000 -0.100000E+003 -0.100000E+003  0.214462E+000  0.115809E+000  0.785538E+000  0.424191E+000  0.000000E+000
  0.206897E+000  0.000000E+000  0.000000E+000 -0.100000E+003 -0.100000E+003  0.214462E+000  0.115809E+000  0.785538E+000  0.424191E+000  0.000000E+000
  0.241379E+000  0.000000E+000  0.000000E+000 -0.100000E+003 -0.100000E+003  0.214462E+000  0.115809E+000  0.785538E+000  0.424191E+000  0.000000E+000
  0.275862E+000  0.000000E+000  0.000000E+000 -0.100000E+003 -0.100000E+003  0.214462E+000  0.115809E+000  0.785538E+000  0.424191E+000  0.000000E+000
  0.310345E+000  0.000000E+000  0.000000E+000 -0.100000E+003 -0.100000E+003  0.214462E+000  0.115809E+000  0.785538E+000  0.424191E+000  0.000000E+000
  0.344828E+000  0.000000E+000  0.000000E+000 -0.100000E+003 -0.100000E+003  0.214462E+000  0.115809E+000  0.785538E+000  0.424191E+000  0.000000E+000
  0.379310E+000  0.000000E+000  0.000000E+000 -0.100000E+003 -0.100000E+003  0.214462E+000  0.115809E+000  0.785538E+000  0.424191E+000  0.000000E+000
  0.413793E+000  0.000000E+000  0.000000E+000 -0.100000E+003 -0.100000E+003  0.214462E+000  0.115809E+000  0.785538E+000  0.424191E+000  0.000000E+000
  0.448276E+000  0.000000E+000  0.000000E+000 -0.100000E+003 -0.100000E+003  0.214462E+000  0.115809E+000  0.785538E+000  0.424191E+000  0.000000E+000
  0.482759E+000  0.000000E+000  0.000000E+000 -0.100000E+003 -0.100000E+003  0.214462E+000  0.115809E+000  0.785538E+000  0.424191E+000  0.000000E+000
  0.517241E+000  0.000000E+000  0.000000E+000 -0.100000E+003 -0.100000E+003  0.214462E+000  0.115809E+000  0.785538E+000  0.424191E+000  0.000000E+000
  0.551724E+000  0.000000E+000  0.000000E+000 -0.100000E+003 -0.100000E+003  0.214462E+000  0.115809E+000  0.785538E+000  0.424191E+000  0.000000E+000
  0.586207E+000  0.000000E+000  0.000000E+000 -0.100000E+003 -0.100000E+003  0.214462E+000  0.115809E+000  0.785538E+000  0.424191E+000  0.000000E+000
  0.620690E+000  0.000000E+000  0.000000E+000 -0.100000E+003 -0.100000E+003  0.214462E+000  0.115809E+000  0.785538E+000  0.424191E+000  0.000000E+000
  0.655172E+000  0.000000E+000  0.000000E+000 -0.100000E+003 -0.100000E+003  0.214462E+000  0.115809E+000  0.785538E+000  0.424191E+000  0.000000E+000
  0.689655E+000  0.000000E+000  0.000000E+000 -0.100000E+003 -0.100000E+003  0.214462E+000  0.115809E+000  0.785538E+000  0.424191E+000  0.000000E+000
  0.724138E+000  0.000000E+000  0.000000E+000 -0.100000E+003 -0.100000E+003  0.214462E+000  0.115809E+000  0.785538E+000  0.424191E+000  0.000000E+000
  0.758621E+000  0.000000E+000  0.000000E+000 -0.100000E+003 -0.100000E+003  0.214462E+000  0.115809E+000  0.785538E+000  0.424191E+000  0.000000E+000
  0.793103E+000  0.000000E+000  0.000000E+000 -0.100000E+003 -0.100000E+003  0.214462E+000  0.115809E+000  0.785538E+000  0.424191E+000  0.000000E+000
  0.827586E+000  0.000000E+000  0.000000E+000 -0.100000E+003 -0.100000E+003  0.214462E+000  0.115809E+000  0.785538E+000  0.424191E+000  0.000000E+000
  0.862069E+000  0.000000E+000  0.000000E+000 -0.100000E+003 -0.100000E+003  0.214462E+000  0.115809E+000  0.785538E+000  0.424191E+000  0.000000E+000
  0.896552E+000  0.000000E+000  0.000000E+000 -0.100000E+003 -0.100000E+003  0.214462E+000  0.115809E+000  0.785538E+000  0.424191E+000  0.000000E+000
  0.931034E+000  0.000000E+000  0.000000E+000 -0.100000E+003 -0.100000E+003  0.214462E+000  0.115809E+000  0.785538E+000  0.424191E+000  0.000000E+000
  0.965517E+000  0.000000E+000  0.000000E+000 -0.100000E+003 -0.100000E+003  0.214462E+000  0.115809E+000  0.785538E+000  0.424191E+000  0.000000E+000
  0.100000E+001  0.000000E+000  0.000000E+000 -0.100000E+003 -0.100000E+003  0.214462E+000  0.115809E+000  0.785538E+000  0.424191E+000  0.000000E+000
  0.000000E+000  0.000000E+000  0.344828E-001 -0.314144E+002 -0.314489E+002  0.273039E+000  0.147441E+000  0.726961E+000  0.392559E+000  0.000000E+000
  0.344828E-001  0.000000E+000  0.344828E-001 -0.314144E+002 -0.314489E+002  0.273039E+000  0.147441E+000  0.726961E+000  0.392559E+000  0.000000E+000
  0.689655E-001  0.000000E+000  0.344828E-001 -0.314144E+002 -0.314489E+002  0.273039E+000  0.147441E+000  0.726961E+000  0.392559E+000  0.000000E+000
  0.103448E+000  0.000000E+000  0.344828E-001 -0.314144E+002 -0.314489E+002  0.273039E+000  0.147441E+000  0.726961E+000  0.392559E+000  0.000000E+000
  0.137931E+000  0.000000E+000  0.344828E-001 -0.314144E+002 -0.314489E+002  0.273039E+000  0.147441E+000  0.726961E+000  0.392559E+000  0.000000E+000
  0.172414E+000  0.000000E+000  0.344828E-001 -0.314144E+002 -0.314489E+002  0.273039E+000  0.147441E+000  0.726961E+000  0.392559E+000  0.000000E+000
  0.206897E+000  0.000000E+000  0.344828E-001 -0.314144E+002 -0.314489E+002  0.273039E+000  0.147441E+000  0.726961E+000  0.392559E+000  0.000000E+000
  0.241379E+000  0.000000E+000  0.344828E-001 -0.314144E+002 -0.314489E+002  0.273039E+000  0.147441E+000  0.726961E+000  0.392559E+000  0.000000E+000
  0.275862E+000  0.000000E+000  0.344828E-001 -0.314144E+002 -0.314489E+002  0.273039E+000  0.147441E+000  0.726961E+000  0.392559E+000  0.000000E+000
  0.310345E+000  0.000000E+000  0.344828E-001 -0.314144E+002 -0.314489E+002  0.273039E+000  0.147441E+000  0.726961E+000  0.392559E+000  0.000000E+000
  0.344828E+000  0.000000E+000  0.344828E-001 -0.314144E+002 -0.314489E+002  0.273039E+000  0.147441E+000  0.726961E+000  0.392559E+000  0.000000E+000
  0.379310E+000  0.000000E+000  0.344828E-001 -0.314144E+002 -0.314489E+002  0.273039E+000  0.147441E+000  0.726961E+000  0.392559E+000  0.000000E+000
  0.413793E+000  0.000000E+000  0.344828E-001 -0.314144E+002 -0.314489E+002  0.273039E+000  0.147441E+000  0.726961E+000  0.392559E+000  0.000000E+000
  0.448276E+000  0.000000E+000  0.344828E-001 -0.314144E+002 -0.314489E+002  0.273039E+000  0.147441E+000  0.726961E+000  0.392559E+000  0.000000E+000
  0.482759E+000  0.000000E+000  0.344828E-001 -0.314144E+002 -0.314489E+002  0.273039E+000  0.147441E+000  0.726961E+000  0.392559E+000  0.000000E+000
  0.517241E+000  0.000000E+000  0.344828E-001 -0.314144E+002 -0.314489E+002  0.273039E+000  0.147441E+000  0.726961E+000  0.392559E+000  0.000000E+000
  0.551724E+000  0.000000E+000  0.344828E-001 -0.314144E+002 -0.314489E+002  0.273039E+000  0.147441E+000  0.726961E+000  0.392559E+000  0.000000E+000
  0.586207E+000  0.000000E+000  0.344828E-001 -0.314144E+002 -0.314489E+002  0.273039E+000  0.147441E+000  0.726961E+000  0.392559E+000  0.000000E+000
  0.620690E+000  0.000000E+000  0.344828E-001 -0.314144E+002 -0.314489E+002  0.273039E+000  0.147441E+000  0.726961E+000  0.392559E+000  0.000000E+000
  0.655172E+000  0.000000E+000  0.344828E-001 -0.314144E+002 -0.314489E+002  0.273039E+000  0.147441E+000  0.726961E+000  0.392559E+000  0.000000E+000
  0.689655E+000  0.000000E+000  0.344828E-001 -0.314144E+002 -0.314489E+002  0.273039E+000  0.147441E+000  0.726961E+000  0.392559E+000  0.000000E+000
  0.724138E+000  0.000000E+000  0.344828E-001 -0.314144E+002 -0.314489E+002  0.273039E+000  0.147441E+000  0.726961E+000  0.392559E+000  0.000000E+000
  0.758621E+000  0.000000E+000  0.344828E-001 -0.314144E+002 -0.314489E+002  0.273039E+000  0.147441E+000  0.726961E+000  0.392559E+000  0.000000E+000
  0.793103E+000  0.000000E+000  0.344828E-001 -0.314144E+002 -0.314489E+002  0.273039E+000  0.147441E+000  0.726961E+000  0.392559E+000  0.000000E+000
  0.827586E+000  0.000000E+000  0.344828E-001 -0.314144E+002 -0.314489E+002  0.273039E+000  0.147441E+000  0.726961E+000  0.392559E+000  0.000000E+000
  0.862069E+000  0.000000E+000  0.344828E-001 -0.314144E+002 -0.314489E+002  0.273039E+000  0.147441E+000  0.726961E+000  0.392559E+000  0.000000E+000
  0.896552E+000  0.000000E+000  0.344828E-001 -0.314144E+002 -0.314489E+002  0.273039E+000  0.147441E+000  0.726961E+000  0.392559E+000  0.000000E+000
  0.931034E+000  0.000000E+000  0.344828E-001 -0.314144E+002 -0.314489E+002  0.273039E+000  0.147441E+000  0.726961E+000  0.392559E+000  0.000000E+000
  0.965517E+000  0.000000E+000  0.344828E-001 -0.314144E+002 -0.314489E+002  0.273039E+000  0.147441E+000  0.726961E+000  0.392559E+000  0.000000E+000
  0.100000E+001  0.000000E+000  0.344828E-001 -0.314144E+002 -0.314489E+002  0.273039E+000  0.147441E+000  0.726961E+000  0.392559E+000  0.000000E+000
  0.000000E+000  0.000000E+000  0.689655E-001 -0.189590E+002 -0.190280E+002  0.312702E+000  0.168859E+000  0.687298E+000  0.371141E+000  0.000000E+000
  0.344828E-001  0.000000E+000  0.689655E-001 -0.189590E+002 -0.190280E+002  0.312702E+000  0.168859E+000  0.687298E+000  0.371141E+000  0.000000E+000
  0.689655E-001  0.000000E+000  0.689655E-001 -0.189590E+002 -0.190280E+002  0.312702E+000  0.168859E+000  0.687298E+000  0.371141E+000  0.000000E+000
  0.103448E+000  0.000000E+000  0.689655E-001 -0.189590E+002 -0.190280E+002  0.312702E+000  0.168859E+000  0.687298E+000  0.371141E+000  0.000000E+000
  0.137931E+000  0.000000E+000  0.689655E-001 -0.189590E+002 -0.190280E+002  0.312702E+000  0.168859E+000  0.687298E+000  0.371141E+000  0.000000E+000
  0.172414E+000  0.000000E+000  0.689655E-001 -0.189590E+002 -0.190280E+002  0.312702E+000  0.168859E+000  0.687298E+000  0.371141E+000  0.000000E+000
  0.206897E+000  0.000000E+000  0.689655E-001 -0.189590E+002 -0.190280E+002  0.312702E+000  0.168859E+000  0.687298E+000  0.371141E+000  0.000000E+000
  0.241379E+000  0.000000E+000  0.689655E-001 -0.189590E+002 -0.190280E+002  0.312702E+000  0.168859E+000  0.687298E+000  0.371141E+000  0.000000E+000
  0.275862E+000  0.000000E+000  0.689655E-001 -0.189590E+002 -0.190280E+002  0.312702E+000  0.168859E+000  0.687298E+000  0.371141E+000  0.000000E+000
  0.310345E+000  0.000000E+000  0.689655E-001 -0.189590E+002 -0.190280E+002  0.312702E+000  0.168859E+000  0.687298E+000  0.371141E+000  0.000000E+000
  0.344828E+000  0.000000E+000  0.689655E-001 -0.189590E+002 -0.190280E+002  0.312702E+000  0.168859E+000  0.687298E+000  0.371141E+000  0.000000E+000
  0.379310E+000  0.000000E+000  0.689655E-001 -0.189590E+002 -0.190280E+002  0.312702E+000  0.168859E+000  0.687298E+000  0.371141E+000  0.000000E+000
  0.413793E+000  0.000000E+000  0.689655E-001 -0.189590E+002 -0.190280E+002  0.312702E+000  0.168859E+000  0.687298E+000  0.371141E+000  0.000000E+000
  0.448276E+000  0.000000E+000  0.689655E-001 -0.189590E+002 -0.190280E+002  0.312702E+000  0.168859E+000  0.687298E+000  0.371141E+000  0.000000E+000
  0.482759E+000  0.000000E+000  0.689655E-001 -0.189590E+002 -0.190280E+002  0.312702E+000  0.168859E+000  0.687298E+000  0.371141E+000  0.000000E+000
  0.517241E+000  0.000000E+000  0.689655E-001 -0.189590E+002 -0.190280E+002  0.312702E+000  0.168859E+000  0.687298E+000  0.371141E+000  0.000000E+000
  0.551724E+000  0.000000E+000  0.689655E-001 -0.189590E+002 -0.190280E+002  0.312702E+000  0.168859E+000  0.687298E+000  0.371141E+000  0.000000E+000
  0.586207E+000  0.000000E+000  0.689655E-001 -0.189590E+002 -0.190280E+002  0.312702E+000  0.168859E+000  0.687298E+000  0.371141E+000  0.000000E+000
  0.620690E+000  0.000000E+000  0.689655E-001 -0.189590E+002 -0.190280E+002  0.312702E+000  0.168859E+000  0.687298E+000  0.371141E+000  0.000000E+000
  0.655172E+000  0.000000E+000  0.689655E-001 -0.189590E+002 -0.190280E+002  0.312702E+000  0.168859E+000  0.687298E+000  0.371141E+000  0.000000E+000
  0.689655E+000  0.000000E+000  0.689655E-001 -0.189590E+002 -0.190280E+002  0.312702E+000  0.168859E+000  0.687298E+000  0.371141E+000  0.000000E+000
  0.724138E+000  0.000000E+000  0.689655E-001 -0.189590E+002 -0.190280E+002  0.312702E+000  0.168859E+000  0.687298E+000  0.371141E+000  0.000000E+000
  0.758621E+000  0.000000E+000  0.689655E-001 -0.189590E+002 -0.190280E+002  0.312702E+000  0.168859E+000  0.687298E+000  0.371141E+000  0.000000E+000
  0.793103E+000  0.000000E+000  0.689655E-001 -0.189590E+002 -0.190280E+002  0.312702E+000  0.168859E+000  0.687298E+000  0.371141E+000  0.000000E+000
  0.827586E+000  0.000000E+000  0.689655E-001 -0.189590E+002 -0.190280E+002  0.312702E+000  0.168859E+000  0.687298E+000  0.371141E+000  0.000000E+000
  0.862069E+000  0.000000E+000  0.689655E-001 -0.189590E+002 -0.190280E+002  0.312702E+000  0.168859E+000  0.687298E+000  0.371141E+000  0.000000E+000
  0.896552E+000  0.000000E+000  0.689655E-001 -0.189590E+002 -0.190280E+002  0.312702E+000  0.168859E+000  0.687298E+000  0.371141E+000  0.000000E+000
  0.931034E+000  0.000000E+000  0.689655E-001 -0.189590E+002 -0.190280E+002  0.312702E+000  0.168859E+000  0.687298E+000  0.371141E+000  0.000000E+000
  0.965517E+000  0.000000E+000  0.689655E-001 -0.189590E+002 -0.190280E+002  0.312702E+000  0.168859E+000  0.687298E+000  0.371141E+000  0.000000E+000
  0.100000E+001  0.000000E+000  0.689655E-001 -0.189590E+002 -0.190280E+002  0.312702E+000  0.168859E+000  0.687298E+000  0.371141E+000  0.000000E+000
  0.000000E+000  0.000000E+000  0.103448E+000 -0.142225E+002 -0.143260E+002  0.340352E+000  0.183790E+000  0.659648E+000  0.356210E+000  0.000000E+000
  0.344828E-001  0.000000E+000  0.103448E+000 -0.142225E+002 -0.143260E+002  0.340352E+000  0.183790E+000  0.659648E+000  0.356210E+000  0.000000E+000
  0.689655E-001  0.000000E+000  0.103448E+000 -0.142225E+002 -0.143260E+002  0.340352E+000  0.183790E+000  0.659648E+000  0.356210E+000  0.000000E+000
  0.103448E+000  0.000000E+000  0.103448E+000 -0.142225E+002 -0.143260E+002  0.340352E+000  0.183790E+000  0.659648E+000  0.356210E+000  0.000000E+000
  0.137931E+000  0.000000E+000  0.103448E+000 -0.142225E+002 -0.143260E+002  0.340352E+000  0.183790E+000  0.659648E+000  0.356210E+000  0.000000E+000
  0.172414E+000  0.000000E+000  0.103448E+000 -0.142225E+002 -0.143260E+002  0.340352E+000  0.183790E+000  0.659648E+000  0.356210E+000  0.000000E+000
  0.206897E+000  0.000000E+000  0.103448E+000 -0.142225E+002 -0.143260E+002  0.340352E+000  0.183790E+000  0.659648E+000  0.356210E+000  0.000000E+000
  0.241379E+000  0.000000E+000  0.103448E+000 -0.142225E+002 -0.143260E+002  0.340352E+000  0.183790E+000  0.659648E+000  0.356210E+000  0.000000E+000
  0.275862E+000  0.000000E+000  0.103448E+000 -0.142225E+002 -0.143260E+002  0.340352E+000  0.183790E+000  0.659648E+000  0.356210E+000  0.000000E+000
  0.310345E+000  0.000000E+000  0.103448E+000 -0.142225E+002 -0.143260E+002  0.340352E+000  0.183790E+000  0.659648E+000  0.356210E+000  0.000000E+000
  0.344828E+000  0.000000E+000  0.103448E+000 -0.142225E+002 -0.143260E+002  0.340352E+000  0.183790E+000  0.659648E+000  0.356210E+000  0.000000E+000
  0.379310E+000  0.000000E+000  0.103448E+000 -0.142225E+002 -0.143260E+002  0.340352E+000  0.183790E+000  0.659648E+000  0.356210E+000  0.000000E+000
  0.413793E+000  0.000000E+000  0.103448E+000 -0.142225E+002 -0.143260E+002  0.340352E+000  0.183790E+000  0.659648E+000  0.356210E+000  0.000000E+000
  0.448276E+000  0.000000E+000  0.103448E+000 -0.142225E+002 -0.143260E+002  0.340352E+000  0.183790E+000  0.659648E+000  0.356210E+000  0.000000E+000
  0.482759E+000  0.000000E+000  0.103448E+000 -0.142225E+002 -0.143260E+002  0.340352E+000  0.183790E+000  0.659648E+000  0.356210E+000  0.000000E+000
  0.517241E+000  0.000000E+000  0.103448E+000 -0.142225E+002 -0.143260E+002  0.340352E+000  0.183790E+000  0.659648E+000  0.356210E+000  0.000000E+000
  0.551724E+000  0.000000E+000  0.103448E+000 -0.142225E+002 -0.143260E+002  0.340352E+000  0.183790E+000  0.659648E+000  0.356210E+000  0.000000E+000
  0.586207E+000  0.000000E+000  0.103448E+000 -0.142225E+002 -0.143260E+002  0.340352E+000  0.183790E+000  0.659648E+000  0.356210E+000  0.000000E+000
  0.620690E+000  0.000000E+000  0.103448E+000 -0.142225E+002 -0.143260E+002  0.340352E+000  0.183790E+000  0.659648E+000  0.356210E+000  0.000000E+000
  0.655172E+000  0.000000E+000  0.103448E+000 -0.142225E+002 -0.143260E+002  0.340352E+000  0.183790E+000  0.659648E+000  0.356210E+000  0.000000E+000
  0.689655E+000  0.000000E+000  0.103448E+000 -0.142225E+002 -0.143260E+002  0.340352E+000  0.183790E+000  0.659648E+000  0.356210E+000  0.000000E+000
  0.724138E+000  0.000000E+000  0.103448E+000 -0.142225E+002 -0.143260E+002  0.340352E+000  0.183790E+000  0.659648E+000  0.356210E+000  0.000000E+000
  0.758621E+000  0.000000E+000  0.103448E+000 -0.142225E+002 -0.143260E+002  0.340352E+000  0.183790E+000  0.659648E+000  0.356210E+000  0.000000E+000
  0.793103E+000  0.000000E+000  0.103448E+000 -0.142225E+002 -0.143260E+002  0.340352E+000  0.183790E+000  0.659648E+000  0.356210E+000  0.000000E+000
  0.827586E+000  0.000000E+000  0.103448E+000 -0.142225E+002 -0.143260E+002  0.340352E+000  0.183790E+000  0.659648E+000  0.356210E+000  0.000000E+000
  0.862069E+000  0.000000E+000  0.103448E+000 -0.142225E+002 -0.143260E+002  0.340352E+000  0.183790E+000  0.659648E+000  0.356210E+000  0.000000E+000
  0.896552E+000  0.000000E+000  0.103448E+000 -0.142225E+002 -0.143260E+002  0.340352E+000  0.183790E+000  0.659648E+000  0.356210E+000  0.000000E+000
  0.931034E+000  0.000000E+000  0.103448E+000 -0.142225E+002 -0.143260E+002  0.340352E+000  0.183790E+000  0.659648E+000  0.356210E+000  0.000000E+000
  0.965517E+000  0.000000E+000  0.103448E+000 -0.142225E+002 -0.143260E+002  0.340352E+000  0.183790E+000  0.659648E+000  0.356210E+000  0.000000E+000
  0.100000E+001  0.000000E+000  0.103448E+000 -0.142225E+002 -0.143260E+002  0.340352E+000  0.183790E+000  0.659648E+000  0.356210E+000  0.000000E+000
  0.000000E+000  0.000000E+000  0.137931E+000 -0.117350E+002 -0.118730E+002  0.361064E+000  0.194975E+000  0.638936E+000  0.345025E+000  0.000000E+000
  0.344828E-001  0.000000E+000  0.137931E+000 -0.117350E+002 -0.118730E+002  0.361064E+000  0.194975E+000  0.638936E+000  0.345025E+000  0.000000E+000
  0.689655E-001  0.000000E+000  0.137931E+000 -0.117350E+002 -0.118730E+002  0.361064E+000  0.194975E+000  0.638936E+000  0.345025E+000  0.000000E+000
  0.103448E+000  0.000000E+000  0.137931E+000 -0.117350E+002 -0.118730E+002  0.361064E+000  0.194975E+000  0.638936E+000  0.345025E+000  0.000000E+000
  0.137931E+000  0.000000E+000  0.137931E+000 -0.117350E+002 -0.118730E+002  0.361064E+000  0.194975E+000  0.638936E+000  0.345025E+000  0.000000E+000
  0.172414E+000  0.000000E+000  0.137931E+000 -0.117350E+002 -0.118730E+002  0.361064E+000  0.194975E+000  0.638936E+000  0.345025E+000  0.000000E+000
  0.206897E+000  0.000000E+000  0.137931E+000 -0.117350E+002 -0.118730E+002  0.361064E+000  0.194975E+000  0.638936E+000  0.345025E+000  0.000000E+000
  0.241379E+000  0.000000E+000  0.137931E+000 -0.117350E+002 -0.118730E+002  0.361064E+000  0.194975E+000  0.638936E+000  0.345025E+000  0.000000E+000
  0.275862E+000  0.000000E+000  0.137931E+000 -0.117350E+002 -0.118730E+002  0.361064E+000  0.194975E+000  0.638936E+000  0.345025E+000  0.000000E+000
  0.310345E+000  0.000000E+000  0.137931E+000 -0.117350E+002 -0.118730E+002  0.361064E+000  0.194975E+000  0.638936E+000  0.345025E+000  0.000000E+000
  0.344828E+000  0.000000E+000  0.137931E+000 -0.117350E+002 -0.118730E+002  0.361064E+000  0.194975E+000  0.638936E+000  0.345025E+000  0.000000E+000
  0.379310E+000  0.000000E+000  0.137931E+000 -0.117350E+002 -0.118730E+002  0.361064E+000  0.194975E+000  0.638936E+000  0.345025E+000  0.000000E+000
  0.413793E+000  0.000000E+000  0.137931E+000 -0.117350E+002 -0.118730E+002  0.361064E+000  0.194975E+000  0.638936E+000  0.345025E+000  0.000000E+000
  0.448276E+000  0.000000E+000  0.137931E+000 -0.117350E+002 -0.118730E+002  0.361064E+000  0.194975E+000  0.638936E+000  0.345025E+000  0.000000E+000
  0.482759E+000  0.000000E+000  0.137931E+000 -0.117350E+002 -0.118730E+002  0.361064E+000  0.194975E+000  0.638936E+000  0.345025E+000  0.000000E+000
  0.517241E+000  0.000000E+000  0.137931E+000 -0.117350E+002 -0.118730E+002  0.361064E+000  0.194975E+000  0.638936E+000  0.345025E+000  0.000000E+000
  0.551724E+000  0.000000E+000  0.137931E+000 -0.117350E+002 -0.118730E+002  0.361064E+000  0.194975E+000  0.638936E+000  0.345025E+000  0.000000E+000
  0.586207E+000  0.000000E+000  0.137931E+000 -0.117350E+002 -0.118730E+002  0.361064E+000  0.194975E+000  0.638936E+000  0.345025E+000  0.000000E+000
  0.620690E+000  0.000000E+000  0.137931E+000 -0.117350E+002 -0.118730E+002  0.361064E+000  0.194975E+000  0.638936E+000  0.345025E+000  0.000000E+000
  0.655172E+000  0.000000E+000  0.137931E+000 -0.117350E+002 -0.118730E+002  0.361064E+000  0.194975E+000  0.638936E+000  0.345025E+000  0.000000E+000
  0.689655E+000  0.000000E+000  0.137931E+000 -0.117350E+002 -0.118730E+002  0.361064E+000  0.194975E+000  0.638936E+000  0.345025E+000  0.000000E+000
  0.724138E+000  0.000000E+000  0.137931E+000 -0.117350E+002 -0.118730E+002  0.361064E+000  0.194975E+000  0.638936E+000  0.345025E+000  0.000000E+000
  0.758621E+000  0.000000E+000  0.137931E+000 -0.117350E+002 -0.118730E+002  0.361064E+000  0.194975E+000  0.638936E+000  0.345025E+000  0.000000E+000
  0.793103E+000  0.000000E+000  0.137931E+000 -0.117350E+002 -0.118730E+002  0.361064E+000  0.194975E+000  0.638936E+000  0.345025E+000  0.000000E+000
  0.827586E+000  0.000000E+000  0.137931E+000 -0.117350E+002 -0.118730E+002  0.361064E+000  0.194975E+000  0.638936E+000  0.345025E+000  0.000000E+000
  0.862069E+000  0.000000E+000  0.137931E+000 -0.117350E+002 -0.118730E+002  0.361064E+000  0.194975E+000  0.638936E+000  0.345025E+000  0.000000E+000
  0.896552E+000  0.000000E+000  0.137931E+000 -0.117350E+002 -0.118730E+002  0.361064E+000  0.194975E+000  0.638936E+000  0.345025E+000  0.000000E+000
  0.931034E+000  0.000000E+000  0.137931E+000 -0.117350E+002 -0.118730E+002  0.361064E+000  0.194975E+000  0.638936E+000  0.345025E+000  0.000000E+000
  0.965517E+000  0.000000E+000  0.137931E+000 -0.117350E+002 -0.118730E+002  0.361064E+000  0.194975E+000  0.638936E+000  0.345025E+000  0.000000E+000
  0.100000E+001  0.000000E+000  0.137931E+000 -0.117350E+002 -0.118730E+002  0.361064E+000  0.194975E+000  0.638936E+000  0.345025E+000  0.000000E+000
  0.000000E+000  0.000000E+000  0.172414E+000 -0.101849E+002 -0.103573E+002  0.377441E+000  0.203818E+000  0.622559E+000  0.336182E+000  0.000000E+000
  0.344828E-001  0.000000E+000  0.172414E+000 -0.101849E+002 -0.103573E+002  0.377441E+000  0.203818E+000  0.622559E+000  0.336182E+000  0.000000E+000
  0.689655E-001  0.000000E+000  0.172414E+000 -0.101849E+002 -0.103573E+002  0.377441E+000  0.203818E+000  0.622559E+000  0.336182E+000  0.000000E+000
  0.103448E+000  0.000000E+000  0.172414E+000 -0.101849E+002 -0.103573E+002  0.377441E+000  0.203818E+000  0.622559E+000  0.336182E+000  0.000000E+000
  0.137931E+000  0.000000E+000  0.172414E+000 -0.101849E+002 -0.103573E+002  0.377441E+000  0.203818E+000  0.622559E+000  0.336182E+000  0.000000E+000
  0.172414E+000  0.000000E+000  0.172414E+000 -0.101849E+002 -0.103573E+002  0.377441E+000  0.203818E+000  0.622559E+000  0.336182E+000  0.000000E+000
  0.206897E+000  0.000000E+000  0.172414E+000 -0.101849E+002 -0.103573E+002  0.377441E+000  0.203818E+000  0.622559E+000  0.336182E+000  0.000000E+000
  0.241379E+000  0.000000E+000  0.172414E+000 -0.101849E+002 -0.103573E+002  0.377441E+000  0.203818E+000  0.622559E+000  0.336182E+000  0.000000E+000
  0.275862E+000  0.000000E+000  0.172414E+000 -0.101849E+002 -0.103573E+002  0.377441E+000  0.203818E+000  0.622559E+000  0.336182E+000  0.000000E+000
  0.310345E+000  0.000000E+000  0.172414E+000 -0.101849E+002 -0.103573E+002  0.377441E+000  0.203818E+000  0.622559E+000  0.336182E+000  0.000000E+000
  0.344828E+000  0.000000E+000  0.172414E+000 -0.101849E+002 -0.103573E+002  0.377441E+000  0.203818E+000  0.622559E+000  0.336182E+000  0.000000E+000
  0.379310E+000  0.000000E+000  0.172414E+000 -0.101849E+002 -0.103573E+002  0.377441E+000  0.203818E+000  0.622559E+000  0.336182E+000  0.000000E+000
  0.413793E+000  0.000000E+000  0.172414E+000 -0.101849E+002 -0.103573E+002  0.377441E+000  0.203818E+000  0.622559E+000  0.336182E+000  0.000000E+000
  0.448276E+000  0.000000E+000  0.172414E+000 -0.101849E+002 -0.103573E+002  0.377441E+000  0.203818E+000  0.622559E+000  0.336182E+000  0.000000E+000
  0.482759E+000  0.000000E+000  0.172414E+000 -0.101849E+002 -0.103573E+002  0.377441E+000  0.203818E+000  0.622559E+000  0.336182E+000  0.000000E+000
  0.517241E+000  0.000000E+000  0.172414E+000 -0.101849E+002 -0.103573E+002  0.377441E+000  0.203818E+000  0.622559E+000  0.336182E+000  0.000000E+000
  0.551724E+000  0.000000E+000  0.172414E+000 -0.101849E+002 -0.103573E+002  0.377441E+000  0.203818E+000  0.622559E+000  0.336182E+000  0.000000E+000
  0.586207E+000  0.000000E+000  0.172414E+000 -0.101849E+002 -0.103573E+002  0.377441E+000  0.203818E+000  0.622559E+000  0.336182E+000  0.000000E+000
  0.620690E+000  0.000000E+000  0.172414E+000 -0.101849E+002 -0.103573E+002  0.377441E+000  0.203818E+000  0.622559E+000  0.336182E+000  0.000000E+000
  0.655172E+000  0.000000E+000  0.172414E+000 -0.101849E+002 -0.103573E+002  0.377441E+000  0.203818E+000  0.622559E+000  0.336182E+000  0.000000E+000
  0.689655E+000  0.000000E+000  0.172414E+000 -0.101849E+002 -0.103573E+002  0.377441E+000  0.203818E+000  0.622559E+000  0.336182E+000  0.000000E+000
  0.724138E+000  0.000000E+000  0.172414E+000 -0.101849E+002 -0.103573E+002  0.377441E+000  0.203818E+000  0.622559E+000  0.336182E+000  0.000000E+000
  0.758621E+000  0.000000E+000  0.172414E+000 -0.101849E+002 -0.103573E+002  0.377441E+000  0.203818E+000  0.622559E+000  0.336182E+000  0.000000E+000
  0.793103E+000  0.000000E+000  0.172414E+000 -0.101849E+002 -0.103573E+002  0.377441E+000  0.203818E+000  0.622559E+000  0.336182E+000  0.000000E+000
  0.827586E+000  0.000000E+000  0.172414E+000 -0.101849E+002 -0.103573E+002  0.377441E+000  0.203818E+000  0.622559E+000  0.336182E+000  0.000000E+000
  0.862069E+000  0.000000E+000  0.172414E+000 -0.101849E+002 -0.103573E+002  0.377441E+000  0.203818E+000  0.622559E+000  0.336182E+000  0.000000E+000
  0.896552E+000  0.000000E+000  0.172414E+000 -0.101849E+002 -0.103573E+002  0.377441E+000  0.203818E+000  0.622559E+000  0.336182E+000  0.000000E+000
  0.931034E+000  0.000000E+000  0.172414E+000 -0.101849E+002 -0.103573E+002  0.377441E+000  0.203818E+000  0.622559E+000  0.336182E+000  0.000000E+000
  0.965517E+000  0.000000E+000  0.172414E+000 -0.101849E+002 -0.103573E+002  0.377441E+000  0.203818E+000  0.622559E+000  0.336182E+000  0.000000E+000
  0.100000E+001  0.000000E+000  0.172414E+000 -0.101849E+002 -0.103573E+002  0.377441E+000  0.203818E+000  0.622559E+000  0.336182E+000  0.000000E+000
  0.000000E+000  0.000000E+000  0.206897E+000 -0.911402E+001 -0.932092E+001  0.390881E+000  0.211076E+000  0.609119E+000  0.328924E+000  0.000000E+000
  0.344828E-001  0.000000E+000  0.206897E+000 -0.911402E+001 -0.932092E+001  0.390881E+000  0.211076E+000  0.609119E+000  0.328924E+000  0.000000E+000
  0.689655E-001  0.000000E+000  0.206897E+000 -0.911402E+001 -0.932092E+001  0.390881E+000  0.211076E+000  0.609119E+000  0.328924E+000  0.000000E+000
  0.103448E+000  0.000000E+000  0.206897E+000 -0.911402E+001 -0.932092E+001  0.390881E+000  0.211076E+000  0.609119E+000  0.328924E+000  0.000000E+000
  0.137931E+000  0.000000E+000  0.206897E+000 -0.911402E+001 -0.932092E+001  0.390881E+000  0.211076E+000  0.609119E+000  0.328924E+000  0.000000E+000
  0.172414E+000  0.000000E+000  0.206897E+000 -0.911402E+001 -0.932092E+001  0.390881E+000  0.211076E+000  0.609119E+000  0.328924E+000  0.000000E+000
  0.206897E+000  0.000000E+000  0.206897E+000 -0.911402E+001 -0.932092E+001  0.390881E+000  0.211076E+000  0.609119E+000  0.328924E+000  0.000000E+000
  0.241379E+000  0.000000E+000  0.206897E+000 -0.911402E+001 -0.932092E+001  0.390881E+000  0.211076E+000  0.609119E+000  0.328924E+000  0.000000E+000
  0.275862E+000  0.000000E+000  0.206897E+000 -0.911402E+001 -0.932092E+001  0.390881E+000  0.211076E+000  0.609119E+000  0.328924E+000  0.000000E+000
  0.310345E+000  0.000000E+000  0.206897E+000 -0.911402E+001 -0.932092E+001  0.390881E+000  0.211076E+000  0.609119E+000  0.328924E+000  0.000000E+000
  0.344828E+000  0.000000E+000  0.206897E+000 -0.911402E+001 -0.932092E+001  0.390881E+000  0.211076E+000  0.609119E+000  0.328924E+000  0.000000E+000
  0.379310E+000  0.000000E+000  0.206897E+000 -0.911402E+001 -0.932092E+001  0.390881E+000  0.211076E+000  0.609119E+000  0.328924E+000  0.000000E+000
  0.413793E+000  0.000000E+000  0.206897E+000 -0.911402E+001 -0.932092E+001  0.390881E+000  0.211076E+000  0.609119E+000  0.328924E+000  0.000000E+000
  0.448276E+000  0.000000E+000  0.206897E+000 -0.911402E+001 -0.932092E+001  0.390881E+000  0.211076E+000  0.609119E+000  0.328924E+000  0.000000E+000
  0.482759E+000  0.000000E+000  0.206897E+000 -0.911402E+001 -0.932092E+001  0.390881E+000  0.211076E+000  0.609119E+000  0.328924E+000  0.000000E+000
  0.517241E+000  0.000000E+000  0.206897E+000 -0.911402E+001 -0.932092E+001  0.390881E+000  0.211076E+000  0.609119E+000  0.328924E+000  0.000000E+000
  0.551724E+000  0.000000E+000  0.206897E+000 -0.911402E+001 -0.932092E+001  0.390881E+000  0.211076E+000  0.609119E+000  0.328924E+000  0.000000E+000