title = "dataset transp-updrld"
variables = "x", "y", "z", "h_w", "p_w", "s_w", "theta_a", "s_a", "theta_g", "q_root"
zone t = "Flow variables, solution time =  3.000E+01 days        " i =   30, j =   30, k =    1,  f=point
  0.000000E+000  0.000000E+000  0.000000E+000 -0.100000E+003 -0.100000E+003  0.214462E+000  0.115809E+000  0.785538E+000  0.424191E+000  0.000000E+000
  0.344828E-001  0.000000E+000  0.000000E+000 -0.100000E+003 -0.100000E+003  0.214462E+000  0.115809E+000  0.785538E+000  0.424191E+000  0.000000E+000
  0.689655E-001  0.000000E+000  0.000000E+000 -0.100000E+003 -0.100000E+003  0.214462E+000  0.115809E+000  0.785538E+000  0.424191E+000  0.000000E+000
  0.103448E+000  0.000000E+000  0.000000E+000 -0.100000E+003 -0.100000E+003  0.214462E+000  0.115809E+000  0.785538E+000  0.424191E+000  0.000000E+000
  0.137931E+000  0.000000E+000  0.000000E+000 -0.100000E+003 -0.100000E+003  0.214462E+000  0.115809E+000  0.785538E+000  0.424191E+000  0.000000E+000
  0.172414E+000  0.000000E+000  0.000000E+000 -0.100000E+003 -0.100000E+003  0.214462E+000  0.115809E+000  0.785538E+000  0.424191E+000  0.000000E+000
  0.206897E+000  0.000000E+000  0.000000E+000 -0.100000E+003 -0.100000E+003  0.214462E+000  0.115809E+000  0.785538E+000  0.424191E+000  0.000000E+000
  0.241379E+000  0.000000E+000  0.000000E+000 -0.100000E+003 -0.100000E+003  0.214462E+000  0.115809E+000  0.785538E+000  0.424191E+000  0.000000E+000
  0.275862E+000  0.000000E+000  0.000000E+000 -0.100000E+003 -0.100000E+003  0.214462E+000  0.115809E+000  0.785538E+000  0.424191E+000  0.000000E+000
  0.310345E+000  0.000000E+000  0.000000E+000 -0.100000E+003 -0.100000E+003  0.214462E+000  0.115809E+000  0.785538E+000  0.424191E+000  0.000000E+000
  0.344828E+000  0.000000E+000  0.000000E+000 -0.100000E+003 -0.100000E+003  0.214462E+000  0.115809E+000  0.785538E+000  0.424191E+000  0.000000E+000
  0.379310E+000  0.000000E+000  0.000000E+000 -0.100000E+003 -0.100000E+003  0.214462E+000  0.115809E+000  0.785538E+000  0.424191E+000  0.000000E+000
  0.413793E+000  0.000000E+000  0.000000E+000 -0.100000E+003 -0.100000E+003  0.214462E+000  0.115809E+000  0.785538E+000  0.424191E+000  0.000000E+000
  0.448276E+000  0.000000E+000  0.000000E+000 -0.100000E+003 -0.100000E+003  0.214462E+000  0.115809E+000  0.785538E+000  0.424191E+000  0.000000E+000
  0.482759E+000  0.000000E+000  0.000000E+000 -0.100000E+003 -0.100000E+003  0.214462E+000  0.115809E+000  0.785538E+000  0.424191E+000  0.000000E+000
  0.517241E+000  0.000000E+000  0.000000E+000 -0.100000E+003 -0.100000E+003  0.214462E+000  0.115809E+000  0.785538E+000  0.424191E+000  0.000000E+000
  0.551724E+000  0.000000E+000  0.000000E+000 -0.100000E+003 -0.100000E+003  0.214462E+000  0.115809E+000  0.785538E+000  0.424191E+000  0.000000E+000
  0.586207E+000  0.000000E+000  0.000000E+000 -0.100000E+003 -0.100000E+003  0.214462E+000  0.115809E+000  0.785538E+000  0.424191E+000  0.000000E+000
  0.620690E+000  0.000000E+000  0.000000E+000 -0.100000E+003 -0.100000E+003  0.214462E+000  0.115809E+000  0.785538E+000  0.424191E+000  0.000000E+000
  0.655172E+000  0.000000E+000  0.000000E+000 -0.100000E+003 -0.100000E+003  0.214462E+000  0.115809E+000  0.785538E+000  0.424191E+000  0.000000E+000
  0.689655E+000  0.000000E+000  0.000000E+000 -0.100000E+003 -0.100000E+003  0.214462E+000  0.115809E+000  0.785538E+000  0.424191E+000  0.000000E+000
  0.724138E+000  0.000000E+000  0.000000E+000 -0.100000E+003 -0.100000E+003  0.214462E+000  0.115809E+000  0.785538E+000  0.424191E+000  0.000000E+000
  0.758621E+000  0.000000E+000  0.000000E+000 -0.100000E+003 -0.100000E+003  0.214462E+000  0.115809E+000  0.785538E+000  0.424191E+000  0.000000E+000
  0.793103E+000  0.000000E+000  0.000000E+000 -0.100000E+003 -0.100000E+003  0.214462E+000  0.115809E+000  0.785538E+000  0.424191E+000  0.000000E+000
  0.827586E+000  0.000000E+000  0.000000E+000 -0.100000E+003 -0.100000E+003  0.214462E+000  0.115809E+000  0.785538E+000  0.424191E+000  0.000000E+000
  0.862069E+000  0.000000E+000  0.000000E+000 -0.100000E+003 -0.100000E+003  0.214462E+000  0.115809E+000  0.785538E+000  0.424191E+000  0.000000E+000
  0.896552E+000  0.000000E+000  0.000000E+000 -0.100000E+003 -0.100000E+003  0.214462E+000  0.115809E+000  0.785538E+000  0.424191E+000  0.000000E+000
  0.931034E+000  0.000000E+000  0.000000E+000 -0.100000E+003 -0.100000E+003  0.214462E+000  0.115809E+000  0.785538E+000  0.424191E+000  0.000000E+000
  0.965517E+000  0.000000E+000  0.000000E+000 -0.100000E+003 -0.100000E+003  0.214462E+000  0.115809E+000  0.785538E+000  0.424191E+000  0.000000E+000
  0.100000E+001  0.000000E+000  0.000000E+000 -0.100000E+003 -0.100000E+003  0.214462E+000  0.115809E+000  0.785538E+000  0.424191E+000  0.000000E+000
  0.000000E+000  0.000000E+000  0.344828E-001 -0.263803E+002 -0.264148E+002  0.285595E+000  0.154221E+000  0.714405E+000  0.385779E+000  0.000000E+000
  0.344828E-001  0.000000E+000  0.344828E-001 -0.263803E+002 -0.264148E+002  0.285595E+000  0.154221E+000  0.714405E+000  0.385779E+000  0.000000E+000
  0.689655E-001  0.000000E+000  0.344828E-001 -0.263803E+002 -0.264148E+002  0.285595E+000  0.154221E+000  0.714405E+000  0.385779E+000  0.000000E+000
  0.103448E+000  0.000000E+000  0.344828E-001 -0.263803E+002 -0.264148E+002  0.285595E+000  0.154221E+000  0.714405E+000  0.385779E+000  0.000000E+000
  0.137931E+000  0.000000E+000  0.344828E-001 -0.263803E+002 -0.264148E+002  0.285595E+000  0.154221E+000  0.714405E+000  0.385779E+000  0.000000E+000
  0.172414E+000  0.000000E+000  0.344828E-001 -0.263803E+002 -0.264148E+002  0.285595E+000  0.154221E+000  0.714405E+000  0.385779E+000  0.000000E+000
  0.206897E+000  0.000000E+000  0.344828E-001 -0.263803E+002 -0.264148E+002  0.285595E+000  0.154221E+000  0.714405E+000  0.385779E+000  0.000000E+000
  0.241379E+000  0.000000E+000  0.344828E-001 -0.263803E+002 -0.264148E+002  0.285595E+000  0.154221E+000  0.714405E+000  0.385779E+000  0.000000E+000
  0.275862E+000  0.000000E+000  0.344828E-001 -0.263803E+002 -0.264148E+002  0.285595E+000  0.154221E+000  0.714405E+000  0.385779E+000  0.000000E+000
  0.310345E+000  0.000000E+000  0.344828E-001 -0.263803E+002 -0.264148E+002  0.285595E+000  0.154221E+000  0.714405E+000  0.385779E+000  0.000000E+000
  0.344828E+000  0.000000E+000  0.344828E-001 -0.263803E+002 -0.264148E+002  0.285595E+000  0.154221E+000  0.714405E+000  0.385779E+000  0.000000E+000
  0.379310E+000  0.000000E+000  0.344828E-001 -0.263803E+002 -0.264148E+002  0.285595E+000  0.154221E+000  0.714405E+000  0.385779E+000  0.000000E+000
  0.413793E+000  0.000000E+000  0.344828E-001 -0.263803E+002 -0.264148E+002  0.285595E+000  0.154221E+000  0.714405E+000  0.385779E+000  0.000000E+000
  0.448276E+000  0.000000E+000  0.344828E-001 -0.263803E+002 -0.264148E+002  0.285595E+000  0.154221E+000  0.714405E+000  0.385779E+000  0.000000E+000
  0.482759E+000  0.000000E+000  0.344828E-001 -0.263803E+002 -0.264148E+002  0.285595E+000  0.154221E+000  0.714405E+000  0.385779E+000  0.000000E+000
  0.517241E+000  0.000000E+000  0.344828E-001 -0.263803E+002 -0.264148E+002  0.285595E+000  0.154221E+000  0.714405E+000  0.385779E+000  0.000000E+000
  0.551724E+000  0.000000E+000  0.344828E-001 -0.263803E+002 -0.264148E+002  0.285595E+000  0.154221E+000  0.714405E+000  0.385779E+000  0.000000E+000
  0.586207E+000  0.000000E+000  0.344828E-001 -0.263803E+002 -0.264148E+002  0.285595E+000  0.154221E+000  0.714405E+000  0.385779E+000  0.000000E+000
  0.620690E+000  0.000000E+000  0.344828E-001 -0.263803E+002 -0.264148E+002  0.285595E+000  0.154221E+000  0.714405E+000  0.385779E+000  0.000000E+000
  0.655172E+000  0.000000E+000  0.344828E-001 -0.263803E+002 -0.264148E+002  0.285595E+000  0.154221E+000  0.714405E+000  0.385779E+000  0.000000E+000
  0.689655E+000  0.000000E+000  0.344828E-001 -0.263803E+002 -0.264148E+002  0.285595E+000  0.154221E+000  0.714405E+000  0.385779E+000  0.000000E+000
  0.724138E+000  0.000000E+000  0.344828E-001 -0.263803E+002 -0.264148E+002  0.285595E+000  0.154221E+000  0.714405E+000  0.385779E+000  0.000000E+000
  0.758621E+000  0.000000E+000  0.344828E-001 -0.263803E+002 -0.264148E+002  0.285595E+000  0.154221E+000  0.714405E+000  0.385779E+000  0.000000E+000
  0.793103E+000  0.000000E+000  0.344828E-001 -0.263803E+002 -0.264148E+002  0.285595E+000  0.154221E+000  0.714405E+000  0.385779E+000  0.000000E+000
  0.827586E+000  0.000000E+000  0.344828E-001 -0.263803E+002 -0.264148E+002  0.285595E+000  0.154221E+000  0.714405E+000  0.385779E+000  0.000000E+000
  0.862069E+000  0.000000E+000  0.344828E-001 -0.263803E+002 -0.264148E+002  0.285595E+000  0.154221E+000  0.714405E+000  0.385779E+000  0.000000E+000
  0.896552E+000  0.000000E+000  0.344828E-001 -0.263803E+002 -0.264148E+002  0.285595E+000  0.154221E+000  0.714405E+000  0.385779E+000  0.000000E+000
  0.931034E+000  0.000000E+000  0.344828E-001 -0.263803E+002 -0.264148E+002  0.285595E+000  0.154221E+000  0.714405E+000  0.385779E+000  0.000000E+000
  0.965517E+000  0.000000E+000  0.344828E-001 -0.263803E+002 -0.264148E+002  0.285595E+000  0.154221E+000  0.714405E+000  0.385779E+000  0.000000E+000
  0.100000E+001  0.000000E+000  0.344828E-001 -0.263803E+002 -0.264148E+002  0.285595E+000  0.154221E+000  0.714405E+000  0.385779E+000  0.000000E+000
  0.000000E+000  0.000000E+000  0.689655E-001 -0.148950E+002 -0.149639E+002  0.335832E+000  0.181349E+000  0.664168E+000  0.358651E+000  0.000000E+000
  0.344828E-001  0.000000E+000  0.689655E-001 -0.148950E+002 -0.149639E+002  0.335832E+000  0.181349E+000  0.664168E+000  0.358651E+000  0.000000E+000
  0.689655E-001  0.000000E+000  0.689655E-001 -0.148950E+002 -0.149639E+002  0.335832E+000  0.181349E+000  0.664168E+000  0.358651E+000  0.000000E+000
  0.103448E+000  0.000000E+000  0.689655E-001 -0.148950E+002 -0.149639E+002  0.335832E+000  0.181349E+000  0.664168E+000  0.358651E+000  0.000000E+000
  0.137931E+000  0.000000E+000  0.689655E-001 -0.148950E+002 -0.149639E+002  0.335832E+000  0.181349E+000  0.664168E+000  0.358651E+000  0.000000E+000
  0.172414E+000  0.000000E+000  0.689655E-001 -0.148950E+002 -0.149639E+002  0.335832E+000  0.181349E+000  0.664168E+000  0.358651E+000  0.000000E+000
  0.206897E+000  0.000000E+000  0.689655E-001 -0.148950E+002 -0.149639E+002  0.335832E+000  0.181349E+000  0.664168E+000  0.358651E+000  0.000000E+000
  0.241379E+000  0.000000E+000  0.689655E-001 -0.148950E+002 -0.149639E+002  0.335832E+000  0.181349E+000  0.664168E+000  0.358651E+000  0.000000E+000
  0.275862E+000  0.000000E+000  0.689655E-001 -0.148950E+002 -0.149639E+002  0.335832E+000  0.181349E+000  0.664168E+000  0.358651E+000  0.000000E+000
  0.310345E+000  0.000000E+000  0.689655E-001 -0.148950E+002 -0.149639E+002  0.335832E+000  0.181349E+000  0.664168E+000  0.358651E+000  0.000000E+000
  0.344828E+000  0.000000E+000  0.689655E-001 -0.148950E+002 -0.149639E+002  0.335832E+000  0.181349E+000  0.664168E+000  0.358651E+000  0.000000E+000
  0.379310E+000  0.000000E+000  0.689655E-001 -0.148950E+002 -0.149639E+002  0.335832E+000  0.181349E+000  0.664168E+000  0.358651E+000  0.000000E+000
  0.413793E+000  0.000000E+000  0.689655E-001 -0.148950E+002 -0.149639E+002  0.335832E+000  0.181349E+000  0.664168E+000  0.358651E+000  0.000000E+000
  0.448276E+000  0.000000E+000  0.689655E-001 -0.148950E+002 -0.149639E+002  0.335832E+000  0.181349E+000  0.664168E+000  0.358651E+000  0.000000E+000
  0.482759E+000  0.000000E+000  0.689655E-001 -0.148950E+002 -0.149639E+002  0.335832E+000  0.181349E+000  0.664168E+000  0.358651E+000  0.000000E+000
  0.517241E+000  0.000000E+000  0.689655E-001 -0.148950E+002 -0.149639E+002  0.335832E+000  0.181349E+000  0.664168E+000  0.358651E+000  0.000000E+000
  0.551724E+000  0.000000E+000  0.689655E-001 -0.148950E+002 -0.149639E+002  0.335832E+000  0.181349E+000  0.664168E+000  0.358651E+000  0.000000E+000
  0.586207E+000  0.000000E+000  0.689655E-001 -0.148950E+002 -0.149639E+002  0.335832E+000  0.181349E+000  0.664168E+000  0.358651E+000  0.000000E+000
  0.620690E+000  0.000000E+000  0.689655E-001 -0.148950E+002 -0.149639E+002  0.335832E+000  0.181349E+000  0.664168E+000  0.358651E+000  0.000000E+000
  0.655172E+000  0.000000E+000  0.689655E-001 -0.148950E+002 -0.149639E+002  0.335832E+000  0.181349E+000  0.664168E+000  0.358651E+000  0.000000E+000
  0.689655E+000  0.000000E+000  0.689655E-001 -0.148950E+002 -0.149639E+002  0.335832E+000  0.181349E+000  0.664168E+000  0.358651E+000  0.000000E+000
  0.724138E+000  0.000000E+000  0.689655E-001 -0.148950E+002 -0.149639E+002  0.335832E+000  0.181349E+000  0.664168E+000  0.358651E+000  0.000000E+000
  0.758621E+000  0.000000E+000  0.689655E-001 -0.148950E+002 -0.149639E+002  0.335832E+000  0.181349E+000  0.664168E+000  0.358651E+000  0.000000E+000
  0.793103E+000  0.000000E+000  0.689655E-001 -0.148950E+002 -0.149639E+002  0.335832E+000  0.181349E+000  0.664168E+000  0.358651E+000  0.000000E+000
  0.827586E+000  0.000000E+000  0.689655E-001 -0.148950E+002 -0.149639E+002  0.335832E+000  0.181349E+000  0.664168E+000  0.358651E+000  0.000000E+000
  0.862069E+000  0.000000E+000  0.689655E-001 -0.148950E+002 -0.149639E+002  0.335832E+000  0.181349E+000  0.664168E+000  0.358651E+000  0.000000E+000
  0.896552E+000  0.000000E+000  0.689655E-001 -0.148950E+002 -0.149639E+002  0.335832E+000  0.181349E+000  0.664168E+000  0.358651E+000  0.000000E+000
  0.931034E+000  0.000000E+000  0.689655E-001 -0.148950E+002 -0.149639E+002  0.335832E+000  0.181349E+000  0.664168E+000  0.358651E+000  0.000000E+000
  0.965517E+000  0.000000E+000  0.689655E-001 -0.148950E+002 -0.149639E+002  0.335832E+000  0.181349E+000  0.664168E+000  0.358651E+000  0.000000E+000
  0.100000E+001  0.000000E+000  0.689655E-001 -0.148950E+002 -0.149639E+002  0.335832E+000  0.181349E+000  0.664168E+000  0.358651E+000  0.000000E+000
  0.000000E+000  0.000000E+000  0.103448E+000 -0.106809E+002 -0.107844E+002  0.372476E+000  0.201137E+000  0.627524E+000  0.338863E+000  0.000000E+000
  0.344828E-001  0.000000E+000  0.103448E+000 -0.106809E+002 -0.107844E+002  0.372476E+000  0.201137E+000  0.627524E+000  0.338863E+000  0.000000E+000
  0.689655E-001  0.000000E+000  0.103448E+000 -0.106809E+002 -0.107844E+002  0.372476E+000  0.201137E+000  0.627524E+000  0.338863E+000  0.000000E+000
  0.103448E+000  0.000000E+000  0.103448E+000 -0.106809E+002 -0.107844E+002  0.372476E+000  0.201137E+000  0.627524E+000  0.338863E+000  0.000000E+000
  0.137931E+000  0.000000E+000  0.103448E+000 -0.106809E+002 -0.107844E+002  0.372476E+000  0.201137E+000  0.627524E+000  0.338863E+000  0.000000E+000
  0.172414E+000  0.000000E+000  0.103448E+000 -0.106809E+002 -0.107844E+002  0.372476E+000  0.201137E+000  0.627524E+000  0.338863E+000  0.000000E+000
  0.206897E+000  0.000000E+000  0.103448E+000 -0.106809E+002 -0.107844E+002  0.372476E+000  0.201137E+000  0.627524E+000  0.338863E+000  0.000000E+000
  0.241379E+000  0.000000E+000  0.103448E+000 -0.106809E+002 -0.107844E+002  0.372476E+000  0.201137E+000  0.627524E+000  0.338863E+000  0.000000E+000
  0.275862E+000  0.000000E+000  0.103448E+000 -0.106809E+002 -0.107844E+002  0.372476E+000  0.201137E+000  0.627524E+000  0.338863E+000  0.000000E+000
  0.310345E+000  0.000000E+000  0.103448E+000 -0.106809E+002 -0.107844E+002  0.372476E+000  0.201137E+000  0.627524E+000  0.338863E+000  0.000000E+000
  0.344828E+000  0.000000E+000  0.103448E+000 -0.106809E+002 -0.107844E+002  0.372476E+000  0.201137E+000  0.627524E+000  0.338863E+000  0.000000E+000
  0.379310E+000  0.000000E+000  0.103448E+000 -0.106809E+002 -0.107844E+002  0.372476E+000  0.201137E+000  0.627524E+000  0.338863E+000  0.000000E+000
  0.413793E+000  0.000000E+000  0.103448E+000 -0.106809E+002 -0.107844E+002  0.372476E+000  0.201137E+000  0.627524E+000  0.338863E+000  0.000000E+000
  0.448276E+000  0.000000E+000  0.103448E+000 -0.106809E+002 -0.107844E+002  0.372476E+000  0.201137E+000  0.627524E+000  0.338863E+000  0.000000E+000
  0.482759E+000  0.000000E+000  0.103448E+000 -0.106809E+002 -0.107844E+002  0.372476E+000  0.201137E+000  0.627524E+000  0.338863E+000  0.000000E+000
  0.517241E+000  0.000000E+000  0.103448E+000 -0.106809E+002 -0.107844E+002  0.372476E+000  0.201137E+000  0.627524E+000  0.338863E+000  0.000000E+000
  0.551724E+000  0.000000E+000  0.103448E+000 -0.106809E+002 -0.107844E+002  0.372476E+000  0.201137E+000  0.627524E+000  0.338863E+000  0.000000E+000
  0.586207E+000  0.000000E+000  0.103448E+000 -0.106809E+002 -0.107844E+002  0.372476E+000  0.201137E+000  0.627524E+000  0.338863E+000  0.000000E+000
  0.620690E+000  0.000000E+000  0.103448E+000 -0.106809E+002 -0.107844E+002  0.372476E+000  0.201137E+000  0.627524E+000  0.338863E+000  0.000000E+000
  0.655172E+000  0.000000E+000  0.103448E+000 -0.106809E+002 -0.107844E+002  0.372476E+000  0.201137E+000  0.627524E+000  0.338863E+000  0.000000E+000
  0.689655E+000  0.000000E+000  0.103448E+000 -0.106809E+002 -0.107844E+002  0.372476E+000  0.201137E+000  0.627524E+000  0.338863E+000  0.000000E+000
  0.724138E+000  0.000000E+000  0.103448E+000 -0.106809E+002 -0.107844E+002  0.372476E+000  0.201137E+000  0.627524E+000  0.338863E+000  0.000000E+000
  0.758621E+000  0.000000E+000  0.103448E+000 -0.106809E+002 -0.107844E+002  0.372476E+000  0.201137E+000  0.627524E+000  0.338863E+000  0.000000E+000
  0.793103E+000  0.000000E+000  0.103448E+000 -0.106809E+002 -0.107844E+002  0.372476E+000  0.201137E+000  0.627524E+000  0.338863E+000  0.000000E+000
  0.827586E+000  0.000000E+000  0.103448E+000 -0.106809E+002 -0.107844E+002  0.372476E+000  0.201137E+000  0.627524E+000  0.338863E+000  0.000000E+000
  0.862069E+000  0.000000E+000  0.103448E+000 -0.106809E+002 -0.107844E+002  0.372476E+000  0.201137E+000  0.627524E+000  0.338863E+000  0.000000E+000
  0.896552E+000  0.000000E+000  0.103448E+000 -0.106809E+002 -0.107844E+002  0.372476E+000  0.201137E+000  0.627524E+000  0.338863E+000  0.000000E+000
  0.931034E+000  0.000000E+000  0.103448E+000 -0.106809E+002 -0.107844E+002  0.372476E+000  0.201137E+000  0.627524E+000  0.338863E+000  0.000000E+000
  0.965517E+000  0.000000E+000  0.103448E+000 -0.106809E+002 -0.107844E+002  0.372476E+000  0.201137E+000  0.627524E+000  0.338863E+000  0.000000E+000
  0.100000E+001  0.000000E+000  0.103448E+000 -0.106809E+002 -0.107844E+002  0.372476E+000  0.201137E+000  0.627524E+000  0.338863E+000  0.000000E+000
  0.000000E+000  0.000000E+000  0.137931E+000 -0.846682E+001 -0.860475E+001  0.401553E+000  0.216839E+000  0.598447E+000  0.323161E+000  0.000000E+000
  0.344828E-001  0.000000E+000  0.137931E+000 -0.846682E+001 -0.860475E+001  0.401553E+000  0.216839E+000  0.598447E+000  0.323161E+000  0.000000E+000
  0.689655E-001  0.000000E+000  0.137931E+000 -0.846682E+001 -0.860475E+001  0.401553E+000  0.216839E+000  0.598447E+000  0.323161E+000  0.000000E+000
  0.103448E+000  0.000000E+000  0.137931E+000 -0.846682E+001 -0.860475E+001  0.401553E+000  0.216839E+000  0.598447E+000  0.323161E+000  0.000000E+000
  0.137931E+000  0.000000E+000  0.137931E+000 -0.846682E+001 -0.860475E+001  0.401553E+000  0.216839E+000  0.598447E+000  0.323161E+000  0.000000E+000
  0.172414E+000  0.000000E+000  0.137931E+000 -0.846682E+001 -0.860475E+001  0.401553E+000  0.216839E+000  0.598447E+000  0.323161E+000  0.000000E+000
  0.206897E+000  0.000000E+000  0.137931E+000 -0.846682E+001 -0.860475E+001  0.401553E+000  0.216839E+000  0.598447E+000  0.323161E+000  0.000000E+000
  0.241379E+000  0.000000E+000  0.137931E+000 -0.846682E+001 -0.860475E+001  0.401553E+000  0.216839E+000  0.598447E+000  0.323161E+000  0.000000E+000
  0.275862E+000  0.000000E+000  0.137931E+000 -0.846682E+001 -0.860475E+001  0.401553E+000  0.216839E+000  0.598447E+000  0.323161E+000  0.000000E+000
  0.310345E+000  0.000000E+000  0.137931E+000 -0.846682E+001 -0.860475E+001  0.401553E+000  0.216839E+000  0.598447E+000  0.323161E+000  0.000000E+000
  0.344828E+000  0.000000E+000  0.137931E+000 -0.846682E+001 -0.860475E+001  0.401553E+000  0.216839E+000  0.598447E+000  0.323161E+000  0.000000E+000
  0.379310E+000  0.000000E+000  0.137931E+000 -0.846682E+001 -0.860475E+001  0.401553E+000  0.216839E+000  0.598447E+000  0.323161E+000  0.000000E+000
  0.413793E+000  0.000000E+000  0.137931E+000 -0.846682E+001 -0.860475E+001  0.401553E+000  0.216839E+000  0.598447E+000  0.323161E+000  0.000000E+000
  0.448276E+000  0.000000E+000  0.137931E+000 -0.846682E+001 -0.860475E+001  0.401553E+000  0.216839E+000  0.598447E+000  0.323161E+000  0.000000E+000
  0.482759E+000  0.000000E+000  0.137931E+000 -0.846682E+001 -0.860475E+001  0.401553E+000  0.216839E+000  0.598447E+000  0.323161E+000  0.000000E+000
  0.517241E+000  0.000000E+000  0.137931E+000 -0.846682E+001 -0.860475E+001  0.401553E+000  0.216839E+000  0.598447E+000  0.323161E+000  0.000000E+000
  0.551724E+000  0.000000E+000  0.137931E+000 -0.846682E+001 -0.860475E+001  0.401553E+000  0.216839E+000  0.598447E+000  0.323161E+000  0.000000E+000
  0.586207E+000  0.000000E+000  0.137931E+000 -0.846682E+001 -0.860475E+001  0.401553E+000  0.216839E+000  0.598447E+000  0.323161E+000  0.000000E+000
  0.620690E+000  0.000000E+000  0.137931E+000 -0.846682E+001 -0.860475E+001  0.401553E+000  0.216839E+000  0.598447E+000  0.323161E+000  0.000000E+000
  0.655172E+000  0.000000E+000  0.137931E+000 -0.846682E+001 -0.860475E+001  0.401553E+000  0.216839E+000  0.598447E+000  0.323161E+000  0.000000E+000
  0.689655E+000  0.000000E+000  0.137931E+000 -0.846682E+001 -0.860475E+001  0.401553E+000  0.216839E+000  0.598447E+000  0.323161E+000  0.000000E+000
  0.724138E+000  0.000000E+000  0.137931E+000 -0.846682E+001 -0.860475E+001  0.401553E+000  0.216839E+000  0.598447E+000  0.323161E+000  0.000000E+000
  0.758621E+000  0.000000E+000  0.137931E+000 -0.846682E+001 -0.860475E+001  0.401553E+000  0.216839E+000  0.598447E+000  0.323161E+000  0.000000E+000
  0.793103E+000  0.000000E+000  0.137931E+000 -0.846682E+001 -0.860475E+001  0.401553E+000  0.216839E+000  0.598447E+000  0.323161E+000  0.000000E+000
  0.827586E+000  0.000000E+000  0.137931E+000 -0.846682E+001 -0.860475E+001  0.401553E+000  0.216839E+000  0.598447E+000  0.323161E+000  0.000000E+000
  0.862069E+000  0.000000E+000  0.137931E+000 -0.846682E+001 -0.860475E+001  0.401553E+000  0.216839E+000  0.598447E+000  0.323161E+000  0.000000E+000
  0.896552E+000  0.000000E+000  0.137931E+000 -0.846682E+001 -0.860475E+001  0.401553E+000  0.216839E+000  0.598447E+000  0.323161E+000  0.000000E+000
  0.931034E+000  0.000000E+000  0.137931E+000 -0.846682E+001 -0.860475E+001  0.401553E+000  0.216839E+000  0.598447E+000  0.323161E+000  0.000000E+000
  0.965517E+000  0.000000E+000  0.137931E+000 -0.846682E+001 -0.860475E+001  0.401553E+000  0.216839E+000  0.598447E+000  0.323161E+000  0.000000E+000
  0.100000E+001  0.000000E+000  0.137931E+000 -0.846682E+001 -0.860475E+001  0.401553E+000  0.216839E+000  0.598447E+000  0.323161E+000  0.000000E+000
  0.000000E+000  0.000000E+000  0.172414E+000 -0.707000E+001 -0.724241E+001  0.426019E+000  0.230050E+000  0.573981E+000  0.309950E+000  0.000000E+000
  0.344828E-001  0.000000E+000  0.172414E+000 -0.707000E+001 -0.724241E+001  0.426019E+000  0.230050E+000  0.573981E+000  0.309950E+000  0.000000E+000
  0.689655E-001  0.000000E+000  0.172414E+000 -0.707000E+001 -0.724241E+001  0.426019E+000  0.230050E+000  0.573981E+000  0.309950E+000  0.000000E+000
  0.103448E+000  0.000000E+000  0.172414E+000 -0.707000E+001 -0.724241E+001  0.426019E+000  0.230050E+000  0.573981E+000  0.309950E+000  0.000000E+000
  0.137931E+000  0.000000E+000  0.172414E+000 -0.707000E+001 -0.724241E+001  0.426019E+000  0.230050E+000  0.573981E+000  0.309950E+000  0.000000E+000
  0.172414E+000  0.000000E+000  0.172414E+000 -0.707000E+001 -0.724241E+001  0.426019E+000  0.230050E+000  0.573981E+000  0.309950E+000  0.000000E+000
  0.206897E+000  0.000000E+000  0.172414E+000 -0.707000E+001 -0.724241E+001  0.426019E+000  0.230050E+000  0.573981E+000  0.309950E+000  0.000000E+000
  0.241379E+000  0.000000E+000  0.172414E+000 -0.707000E+001 -0.724241E+001  0.426019E+000  0.230050E+000  0.573981E+000  0.309950E+000  0.000000E+000
  0.275862E+000  0.000000E+000  0.172414E+000 -0.707000E+001 -0.724241E+001  0.426019E+000  0.230050E+000  0.573981E+000  0.309950E+000  0.000000E+000
  0.310345E+000  0.000000E+000  0.172414E+000 -0.707000E+001 -0.724241E+001  0.426019E+000  0.230050E+000  0.573981E+000  0.309950E+000  0.000000E+000
  0.344828E+000  0.000000E+000  0.172414E+000 -0.707000E+001 -0.724241E+001  0.426019E+000  0.230050E+000  0.573981E+000  0.309950E+000  0.000000E+000
  0.379310E+000  0.000000E+000  0.172414E+000 -0.707000E+001 -0.724241E+001  0.426019E+000  0.230050E+000  0.573981E+000  0.309950E+000  0.000000E+000
  0.413793E+000  0.000000E+000  0.172414E+000 -0.707000E+001 -0.724241E+001  0.426019E+000  0.230050E+000  0.573981E+000  0.309950E+000  0.000000E+000
  0.448276E+000  0.000000E+000  0.172414E+000 -0.707000E+001 -0.724241E+001  0.426019E+000  0.230050E+000  0.573981E+000  0.309950E+000  0.000000E+000
  0.482759E+000  0.000000E+000  0.172414E+000 -0.707000E+001 -0.724241E+001  0.426019E+000  0.230050E+000  0.573981E+000  0.309950E+000  0.000000E+000
  0.517241E+000  0.000000E+000  0.172414E+000 -0.707000E+001 -0.724241E+001  0.426019E+000  0.230050E+000  0.573981E+000  0.309950E+000  0.000000E+000
  0.551724E+000  0.000000E+000  0.172414E+000 -0.707000E+001 -0.724241E+001  0.426019E+000  0.230050E+000  0.573981E+000  0.309950E+000  0.000000E+000
  0.586207E+000  0.000000E+000  0.172414E+000 -0.707000E+001 -0.724241E+001  0.426019E+000  0.230050E+000  0.573981E+000  0.309950E+000  0.000000E+000
  0.620690E+000  0.000000E+000  0.172414E+000 -0.707000E+001 -0.724241E+001  0.426019E+000  0.230050E+000  0.573981E+000  0.309950E+000  0.000000E+000
  0.655172E+000  0.000000E+000  0.172414E+000 -0.707000E+001 -0.724241E+001  0.426019E+000  0.230050E+000  0.573981E+000  0.309950E+000  0.000000E+000
  0.689655E+000  0.000000E+000  0.172414E+000 -0.707000E+001 -0.724241E+001  0.426019E+000  0.230050E+000  0.573981E+000  0.309950E+000  0.000000E+000
  0.724138E+000  0.000000E+000  0.172414E+000 -0.707000E+001 -0.724241E+001  0.426019E+000  0.230050E+000  0.573981E+000  0.309950E+000  0.000000E+000
  0.758621E+000  0.000000E+000  0.172414E+000 -0.707000E+001 -0.724241E+001  0.426019E+000  0.230050E+000  0.573981E+000  0.309950E+000  0.000000E+000
  0.793103E+000  0.000000E+000  0.172414E+000 -0.707000E+001 -0.724241E+001  0.426019E+000  0.230050E+000  0.573981E+000  0.309950E+000  0.000000E+000
  0.827586E+000  0.000000E+000  0.172414E+000 -0.707000E+001 -0.724241E+001  0.426019E+000  0.230050E+000  0.573981E+000  0.309950E+000  0.000000E+000
  0.862069E+000  0.000000E+000  0.172414E+000 -0.707000E+001 -0.724241E+001  0.426019E+000  0.230050E+000  0.573981E+000  0.309950E+000  0.000000E+000
  0.896552E+000  0.000000E+000  0.172414E+000 -0.707000E+001 -0.724241E+001  0.426019E+000  0.230050E+000  0.573981E+000  0.309950E+000  0.000000E+000
  0.931034E+000  0.000000E+000  0.172414E+000 -0.707000E+001 -0.724241E+001  0.426019E+000  0.230050E+000  0.573981E+000  0.309950E+000  0.000000E+000
  0.965517E+000  0.000000E+000  0.172414E+000 -0.707000E+001 -0.724241E+001  0.426019E+000  0.230050E+000  0.573981E+000  0.309950E+000  0.000000E+000
  0.100000E+001  0.000000E+000  0.172414E+000 -0.707000E+001 -0.724241E+001  0.426019E+000  0.230050E+000  0.573981E+000  0.309950E+000  0.000000E+000
  0.000000E+000  0.000000E+000  0.206897E+000 -0.609001E+001 -0.629690E+001  0.447382E+000  0.241586E+000  0.552618E+000  0.298414E+000  0.000000E+000
  0.344828E-001  0.000000E+000  0.206897E+000 -0.609001E+001 -0.629690E+001  0.447382E+000  0.241586E+000  0.552618E+000  0.298414E+000  0.000000E+000
  0.689655E-001  0.000000E+000  0.206897E+000 -0.609001E+001 -0.629690E+001  0.447382E+000  0.241586E+000  0.552618E+000  0.298414E+000  0.000000E+000
  0.103448E+000  0.000000E+000  0.206897E+000 -0.609001E+001 -0.629690E+001  0.447382E+000  0.241586E+000  0.552618E+000  0.298414E+000  0.000000E+000
  0.137931E+000  0.000000E+000  0.206897E+000 -0.609001E+001 -0.629690E+001  0.447382E+000  0.241586E+000  0.552618E+000  0.298414E+000  0.000000E+000
  0.172414E+000  0.000000E+000  0.206897E+000 -0.609001E+001 -0.629690E+001  0.447382E+000  0.241586E+000  0.552618E+000  0.298414E+000  0.000000E+000
  0.206897E+000  0.000000E+000  0.206897E+000 -0.609001E+001 -0.629690E+001  0.447382E+000  0.241586E+000  0.552618E+000  0.298414E+000  0.000000E+000
  0.241379E+000  0.000000E+000  0.206897E+000 -0.609001E+001 -0.629690E+001  0.447382E+000  0.241586E+000  0.552618E+000  0.298414E+000  0.000000E+000
  0.275862E+000  0.000000E+000  0.206897E+000 -0.609001E+001 -0.629690E+001  0.447382E+000  0.241586E+000  0.552618E+000  0.298414E+000  0.000000E+000
  0.310345E+000  0.000000E+000  0.206897E+000 -0.609001E+001 -0.629690E+001  0.447382E+000  0.241586E+000  0.552618E+000  0.298414E+000  0.000000E+000
  0.344828E+000  0.000000E+000  0.206897E+000 -0.609001E+001 -0.629690E+001  0.447382E+000  0.241586E+000  0.552618E+000  0.298414E+000  0.000000E+000
  0.379310E+000  0.000000E+000  0.206897E+000 -0.609001E+001 -0.629690E+001  0.447382E+000  0.241586E+000  0.552618E+000  0.298414E+000  0.000000E+000
  0.413793E+000  0.000000E+000  0.206897E+000 -0.609001E+001 -0.629690E+001  0.447382E+000  0.241586E+000  0.552618E+000  0.298414E+000  0.000000E+000
  0.448276E+000  0.000000E+000  0.206897E+000 -0.609001E+001 -0.629690E+001  0.447382E+000  0.241586E+000  0.552618E+000  0.298414E+000  0.000000E+000
  0.482759E+000  0.000000E+000  0.206897E+000 -0.609001E+001 -0.629690E+001  0.447382E+000  0.241586E+000  0.552618E+000  0.298414E+000  0.000000E+000
  0.517241E+000  0.000000E+000  0.206897E+000 -0.609001E+001 -0.629690E+001  0.447382E+000  0.241586E+000  0.552618E+000  0.298414E+000  0.000000E+000
  0.551724E+000  0.000000E+000  0.206897E+000 -0.609001E+001 -0.629690E+001  0.447382E+000  0.241586E+000  0.552618E+000  0.298414E+000  0.000000E+000