title = "dataset transp-updrld"
variables = "x", "y", "z", "vx", "vy", "vz"
zone t = "velocities, solution time =  1.000E+00 days        " i =  499, j =    1, k =    1,  f=point
  0.000000E+000  0.000000E+000  0.100200E-002  0.000000E+000  0.000000E+000 -0.606972E-002
  0.000000E+000  0.000000E+000  0.300601E-002  0.000000E+000  0.000000E+000 -0.607003E-002
  0.000000E+000  0.000000E+000  0.501002E-002  0.000000E+000  0.000000E+000 -0.607063E-002
  0.000000E+000  0.000000E+000  0.701403E-002  0.000000E+000  0.000000E+000 -0.607148E-002
  0.000000E+000  0.000000E+000  0.901804E-002  0.000000E+000  0.000000E+000 -0.607257E-002
  0.000000E+000  0.000000E+000  0.110220E-001  0.000000E+000  0.000000E+000 -0.607387E-002
  0.000000E+000  0.000000E+000  0.130261E-001  0.000000E+000  0.000000E+000 -0.607535E-002
  0.000000E+000  0.000000E+000  0.150301E-001  0.000000E+000  0.000000E+000 -0.607699E-002
  0.000000E+000  0.000000E+000  0.170341E-001  0.000000E+000  0.000000E+000 -0.607876E-002
  0.000000E+000  0.000000E+000  0.190381E-001  0.000000E+000  0.000000E+000 -0.608066E-002
  0.000000E+000  0.000000E+000  0.210421E-001  0.000000E+000  0.000000E+000 -0.608265E-002
  0.000000E+000  0.000000E+000  0.230461E-001  0.000000E+000  0.000000E+000 -0.608472E-002
  0.000000E+000  0.000000E+000  0.250501E-001  0.000000E+000  0.000000E+000 -0.608686E-002
  0.000000E+000  0.000000E+000  0.270541E-001  0.000000E+000  0.000000E+000 -0.608905E-002
  0.000000E+000  0.000000E+000  0.290581E-001  0.000000E+000  0.000000E+000 -0.609126E-002
  0.000000E+000  0.000000E+000  0.310621E-001  0.000000E+000  0.000000E+000 -0.609350E-002
  0.000000E+000  0.000000E+000  0.330661E-001  0.000000E+000  0.000000E+000 -0.609574E-002
  0.000000E+000  0.000000E+000  0.350701E-001  0.000000E+000  0.000000E+000 -0.609798E-002
  0.000000E+000  0.000000E+000  0.370741E-001  0.000000E+000  0.000000E+000 -0.610020E-002
  0.000000E+000  0.000000E+000  0.390782E-001  0.000000E+000  0.000000E+000 -0.610239E-002
  0.000000E+000  0.000000E+000  0.410822E-001  0.000000E+000  0.000000E+000 -0.610456E-002
  0.000000E+000  0.000000E+000  0.430862E-001  0.000000E+000  0.000000E+000 -0.610667E-002
  0.000000E+000  0.000000E+000  0.450902E-001  0.000000E+000  0.000000E+000 -0.610874E-002
  0.000000E+000  0.000000E+000  0.470942E-001  0.000000E+000  0.000000E+000 -0.611075E-002
  0.000000E+000  0.000000E+000  0.490982E-001  0.000000E+000  0.000000E+000 -0.611270E-002
  0.000000E+000  0.000000E+000  0.511022E-001  0.000000E+000  0.000000E+000 -0.611458E-002
  0.000000E+000  0.000000E+000  0.531062E-001  0.000000E+000  0.000000E+000 -0.611639E-002
  0.000000E+000  0.000000E+000  0.551102E-001  0.000000E+000  0.000000E+000 -0.611812E-002
  0.000000E+000  0.000000E+000  0.571142E-001  0.000000E+000  0.000000E+000 -0.611977E-002
  0.000000E+000  0.000000E+000  0.591182E-001  0.000000E+000  0.000000E+000 -0.612133E-002
  0.000000E+000  0.000000E+000  0.611222E-001  0.000000E+000  0.000000E+000 -0.612281E-002
  0.000000E+000  0.000000E+000  0.631263E-001  0.000000E+000  0.000000E+000 -0.612419E-002
  0.000000E+000  0.000000E+000  0.651303E-001  0.000000E+000  0.000000E+000 -0.612549E-002
  0.000000E+000  0.000000E+000  0.671343E-001  0.000000E+000  0.000000E+000 -0.612669E-002
  0.000000E+000  0.000000E+000  0.691383E-001  0.000000E+000  0.000000E+000 -0.612779E-002
  0.000000E+000  0.000000E+000  0.711423E-001  0.000000E+000  0.000000E+000 -0.612880E-002
  0.000000E+000  0.000000E+000  0.731463E-001  0.000000E+000  0.000000E+000 -0.612970E-002
  0.000000E+000  0.000000E+000  0.751503E-001  0.000000E+000  0.000000E+000 -0.613051E-002
  0.000000E+000  0.000000E+000  0.771543E-001  0.000000E+000  0.000000E+000 -0.613122E-002
  0.000000E+000  0.000000E+000  0.791583E-001  0.000000E+000  0.000000E+000 -0.613183E-002
  0.000000E+000  0.000000E+000  0.811623E-001  0.000000E+000  0.000000E+000 -0.613234E-002
  0.000000E+000  0.000000E+000  0.831663E-001  0.000000E+000  0.000000E+000 -0.613275E-002
  0.000000E+000  0.000000E+000  0.851703E-001  0.000000E+000  0.000000E+000 -0.613306E-002
  0.000000E+000  0.000000E+000  0.871743E-001  0.000000E+000  0.000000E+000 -0.613327E-002
  0.000000E+000  0.000000E+000  0.891784E-001  0.000000E+000  0.000000E+000 -0.613338E-002
  0.000000E+000  0.000000E+000  0.911824E-001  0.000000E+000  0.000000E+000 -0.613340E-002
  0.000000E+000  0.000000E+000  0.931864E-001  0.000000E+000  0.000000E+000 -0.613331E-002
  0.000000E+000  0.000000E+000  0.951904E-001  0.000000E+000  0.000000E+000 -0.613313E-002
  0.000000E+000  0.000000E+000  0.971944E-001  0.000000E+000  0.000000E+000 -0.613285E-002
  0.000000E+000  0.000000E+000  0.991984E-001  0.000000E+000  0.000000E+000 -0.613247E-002
  0.000000E+000  0.000000E+000  0.101202E+000  0.000000E+000  0.000000E+000 -0.613201E-002
  0.000000E+000  0.000000E+000  0.103206E+000  0.000000E+000  0.000000E+000 -0.613144E-002
  0.000000E+000  0.000000E+000  0.105210E+000  0.000000E+000  0.000000E+000 -0.613079E-002
  0.000000E+000  0.000000E+000  0.107214E+000  0.000000E+000  0.000000E+000 -0.613004E-002
  0.000000E+000  0.000000E+000  0.109218E+000  0.000000E+000  0.000000E+000 -0.612921E-002
  0.000000E+000  0.000000E+000  0.111222E+000  0.000000E+000  0.000000E+000 -0.612828E-002
  0.000000E+000  0.000000E+000  0.113226E+000  0.000000E+000  0.000000E+000 -0.612727E-002
  0.000000E+000  0.000000E+000  0.115230E+000  0.000000E+000  0.000000E+000 -0.612617E-002
  0.000000E+000  0.000000E+000  0.117234E+000  0.000000E+000  0.000000E+000 -0.612499E-002
  0.000000E+000  0.000000E+000  0.119238E+000  0.000000E+000  0.000000E+000 -0.612373E-002
  0.000000E+000  0.000000E+000  0.121242E+000  0.000000E+000  0.000000E+000 -0.612238E-002
  0.000000E+000  0.000000E+000  0.123246E+000  0.000000E+000  0.000000E+000 -0.612096E-002
  0.000000E+000  0.000000E+000  0.125251E+000  0.000000E+000  0.000000E+000 -0.611945E-002
  0.000000E+000  0.000000E+000  0.127255E+000  0.000000E+000  0.000000E+000 -0.611787E-002
  0.000000E+000  0.000000E+000  0.129259E+000  0.000000E+000  0.000000E+000 -0.611621E-002
  0.000000E+000  0.000000E+000  0.131263E+000  0.000000E+000  0.000000E+000 -0.611448E-002
  0.000000E+000  0.000000E+000  0.133267E+000  0.000000E+000  0.000000E+000 -0.611268E-002
  0.000000E+000  0.000000E+000  0.135271E+000  0.000000E+000  0.000000E+000 -0.611080E-002
  0.000000E+000  0.000000E+000  0.137275E+000  0.000000E+000  0.000000E+000 -0.610886E-002
  0.000000E+000  0.000000E+000  0.139279E+000  0.000000E+000  0.000000E+000 -0.610685E-002
  0.000000E+000  0.000000E+000  0.141283E+000  0.000000E+000  0.000000E+000 -0.610477E-002
  0.000000E+000  0.000000E+000  0.143287E+000  0.000000E+000  0.000000E+000 -0.610262E-002
  0.000000E+000  0.000000E+000  0.145291E+000  0.000000E+000  0.000000E+000 -0.610042E-002
  0.000000E+000  0.000000E+000  0.147295E+000  0.000000E+000  0.000000E+000 -0.609815E-002
  0.000000E+000  0.000000E+000  0.149299E+000  0.000000E+000  0.000000E+000 -0.609582E-002
  0.000000E+000  0.000000E+000  0.151303E+000  0.000000E+000  0.000000E+000 -0.609343E-002
  0.000000E+000  0.000000E+000  0.153307E+000  0.000000E+000  0.000000E+000 -0.609099E-002
  0.000000E+000  0.000000E+000  0.155311E+000  0.000000E+000  0.000000E+000 -0.608849E-002
  0.000000E+000  0.000000E+000  0.157315E+000  0.000000E+000  0.000000E+000 -0.608594E-002
  0.000000E+000  0.000000E+000  0.159319E+000  0.000000E+000  0.000000E+000 -0.608333E-002
  0.000000E+000  0.000000E+000  0.161323E+000  0.000000E+000  0.000000E+000 -0.608067E-002
  0.000000E+000  0.000000E+000  0.163327E+000  0.000000E+000  0.000000E+000 -0.607797E-002
  0.000000E+000  0.000000E+000  0.165331E+000  0.000000E+000  0.000000E+000 -0.607521E-002
  0.000000E+000  0.000000E+000  0.167335E+000  0.000000E+000  0.000000E+000 -0.607241E-002
  0.000000E+000  0.000000E+000  0.169339E+000  0.000000E+000  0.000000E+000 -0.606957E-002
  0.000000E+000  0.000000E+000  0.171343E+000  0.000000E+000  0.000000E+000 -0.606668E-002
  0.000000E+000  0.000000E+000  0.173347E+000  0.000000E+000  0.000000E+000 -0.606374E-002
  0.000000E+000  0.000000E+000  0.175351E+000  0.000000E+000  0.000000E+000 -0.606077E-002
  0.000000E+000  0.000000E+000  0.177355E+000  0.000000E+000  0.000000E+000 -0.605776E-002
  0.000000E+000  0.000000E+000  0.179359E+000  0.000000E+000  0.000000E+000 -0.605471E-002
  0.000000E+000  0.000000E+000  0.181363E+000  0.000000E+000  0.000000E+000 -0.605163E-002
  0.000000E+000  0.000000E+000  0.183367E+000  0.000000E+000  0.000000E+000 -0.604850E-002
  0.000000E+000  0.000000E+000  0.185371E+000  0.000000E+000  0.000000E+000 -0.604535E-002
  0.000000E+000  0.000000E+000  0.187375E+000  0.000000E+000  0.000000E+000 -0.604216E-002
  0.000000E+000  0.000000E+000  0.189379E+000  0.000000E+000  0.000000E+000 -0.603895E-002
  0.000000E+000  0.000000E+000  0.191383E+000  0.000000E+000  0.000000E+000 -0.603570E-002
  0.000000E+000  0.000000E+000  0.193387E+000  0.000000E+000  0.000000E+000 -0.603242E-002
  0.000000E+000  0.000000E+000  0.195391E+000  0.000000E+000  0.000000E+000 -0.602912E-002
  0.000000E+000  0.000000E+000  0.197395E+000  0.000000E+000  0.000000E+000 -0.602579E-002
  0.000000E+000  0.000000E+000  0.199399E+000  0.000000E+000  0.000000E+000 -0.602244E-002
  0.000000E+000  0.000000E+000  0.201403E+000  0.000000E+000  0.000000E+000 -0.601907E-002
  0.000000E+000  0.000000E+000  0.203407E+000  0.000000E+000  0.000000E+000 -0.601567E-002
  0.000000E+000  0.000000E+000  0.205411E+000  0.000000E+000  0.000000E+000 -0.601225E-002
  0.000000E+000  0.000000E+000  0.207415E+000  0.000000E+000  0.000000E+000 -0.600882E-002
  0.000000E+000  0.000000E+000  0.209419E+000  0.000000E+000  0.000000E+000 -0.600536E-002
  0.000000E+000  0.000000E+000  0.211423E+000  0.000000E+000  0.000000E+000 -0.600189E-002
  0.000000E+000  0.000000E+000  0.213427E+000  0.000000E+000  0.000000E+000 -0.599841E-002
  0.000000E+000  0.000000E+000  0.215431E+000  0.000000E+000  0.000000E+000 -0.599491E-002
  0.000000E+000  0.000000E+000  0.217435E+000  0.000000E+000  0.000000E+000 -0.599139E-002
  0.000000E+000  0.000000E+000  0.219439E+000  0.000000E+000  0.000000E+000 -0.598787E-002
  0.000000E+000  0.000000E+000  0.221443E+000  0.000000E+000  0.000000E+000 -0.598433E-002
  0.000000E+000  0.000000E+000  0.223447E+000  0.000000E+000  0.000000E+000 -0.598079E-002
  0.000000E+000  0.000000E+000  0.225451E+000  0.000000E+000  0.000000E+000 -0.597723E-002
  0.000000E+000  0.000000E+000  0.227455E+000  0.000000E+000  0.000000E+000 -0.597367E-002
  0.000000E+000  0.000000E+000  0.229459E+000  0.000000E+000  0.000000E+000 -0.597010E-002
  0.000000E+000  0.000000E+000  0.231463E+000  0.000000E+000  0.000000E+000 -0.596653E-002
  0.000000E+000  0.000000E+000  0.233467E+000  0.000000E+000  0.000000E+000 -0.596296E-002
  0.000000E+000  0.000000E+000  0.235471E+000  0.000000E+000  0.000000E+000 -0.595938E-002
  0.000000E+000  0.000000E+000  0.237475E+000  0.000000E+000  0.000000E+000 -0.595580E-002
  0.000000E+000  0.000000E+000  0.239479E+000  0.000000E+000  0.000000E+000 -0.595222E-002
  0.000000E+000  0.000000E+000  0.241483E+000  0.000000E+000  0.000000E+000 -0.594864E-002
  0.000000E+000  0.000000E+000  0.243487E+000  0.000000E+000  0.000000E+000 -0.594506E-002
  0.000000E+000  0.000000E+000  0.245491E+000  0.000000E+000  0.000000E+000 -0.594148E-002
  0.000000E+000  0.000000E+000  0.247495E+000  0.000000E+000  0.000000E+000 -0.593791E-002
  0.000000E+000  0.000000E+000  0.249499E+000  0.000000E+000  0.000000E+000 -0.593434E-002
  0.000000E+000  0.000000E+000  0.251503E+000  0.000000E+000  0.000000E+000 -0.593078E-002
  0.000000E+000  0.000000E+000  0.253507E+000  0.000000E+000  0.000000E+000 -0.592722E-002
  0.000000E+000  0.000000E+000  0.255511E+000  0.000000E+000  0.000000E+000 -0.592368E-002
  0.000000E+000  0.000000E+000  0.257515E+000  0.000000E+000  0.000000E+000 -0.592014E-002
  0.000000E+000  0.000000E+000  0.259519E+000  0.000000E+000  0.000000E+000 -0.591661E-002
  0.000000E+000  0.000000E+000  0.261523E+000  0.000000E+000  0.000000E+000 -0.591309E-002
  0.000000E+000  0.000000E+000  0.263527E+000  0.000000E+000  0.000000E+000 -0.590958E-002
  0.000000E+000  0.000000E+000  0.265531E+000  0.000000E+000  0.000000E+000 -0.590609E-002
  0.000000E+000  0.000000E+000  0.267535E+000  0.000000E+000  0.000000E+000 -0.590261E-002
  0.000000E+000  0.000000E+000  0.269539E+000  0.000000E+000  0.000000E+000 -0.589914E-002
  0.000000E+000  0.000000E+000  0.271543E+000  0.000000E+000  0.000000E+000 -0.589569E-002
  0.000000E+000  0.000000E+000  0.273547E+000  0.000000E+000  0.000000E+000 -0.589226E-002
  0.000000E+000  0.000000E+000  0.275551E+000  0.000000E+000  0.000000E+000 -0.588884E-002
  0.000000E+000  0.000000E+000  0.277555E+000  0.000000E+000  0.000000E+000 -0.588544E-002
  0.000000E+000  0.000000E+000  0.279559E+000  0.000000E+000  0.000000E+000 -0.588207E-002
  0.000000E+000  0.000000E+000  0.281563E+000  0.000000E+000  0.000000E+000 -0.587871E-002
  0.000000E+000  0.000000E+000  0.283567E+000  0.000000E+000  0.000000E+000 -0.587537E-002
  0.000000E+000  0.000000E+000  0.285571E+000  0.000000E+000  0.000000E+000 -0.587205E-002
  0.000000E+000  0.000000E+000  0.287575E+000  0.000000E+000  0.000000E+000 -0.586876E-002
  0.000000E+000  0.000000E+000  0.289579E+000  0.000000E+000  0.000000E+000 -0.586549E-002
  0.000000E+000  0.000000E+000  0.291583E+000  0.000000E+000  0.000000E+000 -0.586224E-002
  0.000000E+000  0.000000E+000  0.293587E+000  0.000000E+000  0.000000E+000 -0.585902E-002
  0.000000E+000  0.000000E+000  0.295591E+000  0.000000E+000  0.000000E+000 -0.585583E-002
  0.000000E+000  0.000000E+000  0.297595E+000  0.000000E+000  0.000000E+000 -0.585266E-002
  0.000000E+000  0.000000E+000  0.299599E+000  0.000000E+000  0.000000E+000 -0.584952E-002
  0.000000E+000  0.000000E+000  0.301603E+000  0.000000E+000  0.000000E+000 -0.584641E-002
  0.000000E+000  0.000000E+000  0.303607E+000  0.000000E+000  0.000000E+000 -0.584333E-002
  0.000000E+000  0.000000E+000  0.305611E+000  0.000000E+000  0.000000E+000 -0.584028E-002
  0.000000E+000  0.000000E+000  0.307615E+000  0.000000E+000  0.000000E+000 -0.583726E-002
  0.000000E+000  0.000000E+000  0.309619E+000  0.000000E+000  0.000000E+000 -0.583427E-002
  0.000000E+000  0.000000E+000  0.311623E+000  0.000000E+000  0.000000E+000 -0.583131E-002
  0.000000E+000  0.000000E+000  0.313627E+000  0.000000E+000  0.000000E+000 -0.582839E-002
  0.000000E+000  0.000000E+000  0.315631E+000  0.000000E+000  0.000000E+000 -0.582551E-002
  0.000000E+000  0.000000E+000  0.317635E+000  0.000000E+000  0.000000E+000 -0.582265E-002
  0.000000E+000  0.000000E+000  0.319639E+000  0.000000E+000  0.000000E+000 -0.581984E-002
  0.000000E+000  0.000000E+000  0.321643E+000  0.000000E+000  0.000000E+000 -0.581706E-002
  0.000000E+000  0.000000E+000  0.323647E+000  0.000000E+000  0.000000E+000 -0.581432E-002
  0.000000E+000  0.000000E+000  0.325651E+000  0.000000E+000  0.000000E+000 -0.581161E-002
  0.000000E+000  0.000000E+000  0.327655E+000  0.000000E+000  0.000000E+000 -0.580895E-002
  0.000000E+000  0.000000E+000  0.329659E+000  0.000000E+000  0.000000E+000 -0.580632E-002
  0.000000E+000  0.000000E+000  0.331663E+000  0.000000E+000  0.000000E+000 -0.580374E-002
  0.000000E+000  0.000000E+000  0.333667E+000  0.000000E+000  0.000000E+000 -0.580119E-002
  0.000000E+000  0.000000E+000  0.335671E+000  0.000000E+000  0.000000E+000 -0.579869E-002
  0.000000E+000  0.000000E+000  0.337675E+000  0.000000E+000  0.000000E+000 -0.579623E-002
  0.000000E+000  0.000000E+000  0.339679E+000  0.000000E+000  0.000000E+000 -0.579382E-002
  0.000000E+000  0.000000E+000  0.341683E+000  0.000000E+000  0.000000E+000 -0.579145E-002
  0.000000E+000  0.000000E+000  0.343687E+000  0.000000E+000  0.000000E+000 -0.578912E-002
  0.000000E+000  0.000000E+000  0.345691E+000  0.000000E+000  0.000000E+000 -0.578684E-002
  0.000000E+000  0.000000E+000  0.347695E+000  0.000000E+000  0.000000E+000 -0.578461E-002
  0.000000E+000  0.000000E+000  0.349699E+000  0.000000E+000  0.000000E+000 -0.578242E-002
  0.000000E+000  0.000000E+000  0.351703E+000  0.000000E+000  0.000000E+000 -0.578028E-002
  0.000000E+000  0.000000E+000  0.353707E+000  0.000000E+000  0.000000E+000 -0.577819E-002
  0.000000E+000  0.000000E+000  0.355711E+000  0.000000E+000  0.000000E+000 -0.577615E-002
  0.000000E+000  0.000000E+000  0.357715E+000  0.000000E+000  0.000000E+000 -0.577416E-002
  0.000000E+000  0.000000E+000  0.359719E+000  0.000000E+000  0.000000E+000 -0.577222E-002
  0.000000E+000  0.000000E+000  0.361723E+000  0.000000E+000  0.000000E+000 -0.577033E-002
  0.000000E+000  0.000000E+000  0.363727E+000  0.000000E+000  0.000000E+000 -0.576850E-002
  0.000000E+000  0.000000E+000  0.365731E+000  0.000000E+000  0.000000E+000 -0.576671E-002
  0.000000E+000  0.000000E+000  0.367735E+000  0.000000E+000  0.000000E+000 -0.576498E-002
  0.000000E+000  0.000000E+000  0.369739E+000  0.000000E+000  0.000000E+000 -0.576331E-002
  0.000000E+000  0.000000E+000  0.371743E+000  0.000000E+000  0.000000E+000 -0.576169E-002
  0.000000E+000  0.000000E+000  0.373747E+000  0.000000E+000  0.000000E+000 -0.576012E-002
  0.000000E+000  0.000000E+000  0.375752E+000  0.000000E+000  0.000000E+000 -0.575861E-002
  0.000000E+000  0.000000E+000  0.377756E+000  0.000000E+000  0.000000E+000 -0.575716E-002
  0.000000E+000  0.000000E+000  0.379760E+000  0.000000E+000  0.000000E+000 -0.575576E-002
  0.000000E+000  0.000000E+000  0.381764E+000  0.000000E+000  0.000000E+000 -0.575442E-002
  0.000000E+000  0.000000E+000  0.383768E+000  0.000000E+000  0.000000E+000 -0.575315E-002
  0.000000E+000  0.000000E+000  0.385772E+000  0.000000E+000  0.000000E+000 -0.575193E-002
  0.000000E+000  0.000000E+000  0.387776E+000  0.000000E+000  0.000000E+000 -0.575077E-002
  0.000000E+000  0.000000E+000  0.389780E+000  0.000000E+000  0.000000E+000 -0.574967E-002
  0.000000E+000  0.000000E+000  0.391784E+000  0.000000E+000  0.000000E+000 -0.574864E-002
  0.000000E+000  0.000000E+000  0.393788E+000  0.000000E+000  0.000000E+000 -0.574766E-002
  0.000000E+000  0.000000E+000  0.395792E+000  0.000000E+000  0.000000E+000 -0.574675E-002
  0.000000E+000  0.000000E+000  0.397796E+000  0.000000E+000  0.000000E+000 -0.574591E-002
  0.000000E+000  0.000000E+000  0.399800E+000  0.000000E+000  0.000000E+000 -0.574512E-002
  0.000000E+000  0.000000E+000  0.401804E+000  0.000000E+000  0.000000E+000 -0.574441E-002
  0.000000E+000  0.000000E+000  0.403808E+000  0.000000E+000  0.000000E+000 -0.574375E-002
  0.000000E+000  0.000000E+000  0.405812E+000  0.000000E+000  0.000000E+000 -0.574317E-002
  0.000000E+000  0.000000E+000  0.407816E+000  0.000000E+000  0.000000E+000 -0.574265E-002
  0.000000E+000  0.000000E+000  0.409820E+000  0.000000E+000  0.000000E+000 -0.574220E-002
  0.000000E+000  0.000000E+000  0.411824E+000  0.000000E+000  0.000000E+000 -0.574182E-002
  0.000000E+000  0.000000E+000  0.413828E+000  0.000000E+000  0.000000E+000 -0.574150E-002
  0.000000E+000  0.000000E+000  0.415832E+000  0.000000E+000  0.000000E+000 -0.574126E-002
  0.000000E+000  0.000000E+000  0.417836E+000  0.000000E+000  0.000000E+000 -0.574108E-002
  0.000000E+000  0.000000E+000  0.419840E+000  0.000000E+000  0.000000E+000 -0.574098E-002
  0.000000E+000  0.000000E+000  0.421844E+000  0.000000E+000  0.000000E+000 -0.574095E-002
  0.000000E+000  0.000000E+000  0.423848E+000  0.000000E+000  0.000000E+000 -0.574099E-002
  0.000000E+000  0.000000E+000  0.425852E+000  0.000000E+000  0.000000E+000 -0.574110E-002
  0.000000E+000  0.000000E+000  0.427856E+000  0.000000E+000  0.000000E+000 -0.574128E-002
  0.000000E+000  0.000000E+000  0.429860E+000  0.000000E+000  0.000000E+000 -0.574154E-002
  0.000000E+000  0.000000E+000  0.431864E+000  0.000000E+000  0.000000E+000 -0.574188E-002
  0.000000E+000  0.000000E+000  0.433868E+000  0.000000E+000  0.000000E+000 -0.574229E-002
  0.000000E+000  0.000000E+000  0.435872E+000  0.000000E+000  0.000000E+000 -0.574278E-002
  0.000000E+000  0.000000E+000  0.437876E+000  0.000000E+000  0.000000E+000 -0.574334E-002
  0.000000E+000  0.000000E+000  0.439880E+000  0.000000E+000  0.000000E+000 -0.574398E-002
  0.000000E+000  0.000000E+000  0.441884E+000  0.000000E+000  0.000000E+000 -0.574470E-002
  0.000000E+000  0.000000E+000  0.443888E+000  0.000000E+000  0.000000E+000 -0.574549E-002
  0.000000E+000  0.000000E+000  0.445892E+000  0.000000E+000  0.000000E+000 -0.574637E-002
  0.000000E+000  0.000000E+000  0.447896E+000  0.000000E+000  0.000000E+000 -0.574733E-002
  0.000000E+000  0.000000E+000  0.449900E+000  0.000000E+000  0.000000E+000 -0.574836E-002
  0.000000E+000  0.000000E+000  0.451904E+000  0.000000E+000  0.000000E+000 -0.574948E-002
  0.000000E+000  0.000000E+000  0.453908E+000  0.000000E+000  0.000000E+000 -0.575068E-002
  0.000000E+000  0.000000E+000  0.455912E+000  0.000000E+000  0.000000E+000 -0.575196E-002
  0.000000E+000  0.000000E+000  0.457916E+000  0.000000E+000  0.000000E+000 -0.575333E-002
  0.000000E+000  0.000000E+000  0.459920E+000  0.000000E+000  0.000000E+000 -0.575478E-002
  0.000000E+000  0.000000E+000  0.461924E+000  0.000000E+000  0.000000E+000 -0.575631E-002
  0.000000E+000  0.000000E+000  0.463928E+000  0.000000E+000  0.000000E+000 -0.575793E-002
  0.000000E+000  0.000000E+000  0.465932E+000  0.000000E+000  0.000000E+000 -0.575963E-002
  0.000000E+000  0.000000E+000  0.467936E+000  0.000000E+000  0.000000E+000 -0.576143E-002
  0.000000E+000  0.000000E+000  0.469940E+000  0.000000E+000  0.000000E+000 -0.576330E-002
  0.000000E+000  0.000000E+000  0.471944E+000  0.000000E+000  0.000000E+000 -0.576527E-002
  0.000000E+000  0.000000E+000  0.473948E+000  0.000000E+000  0.000000E+000 -0.576733E-002
  0.000000E+000  0.000000E+000  0.475952E+000  0.000000E+000  0.000000E+000 -0.576947E-002
  0.000000E+000  0.000000E+000  0.477956E+000  0.000000E+000  0.000000E+000 -0.577170E-002
  0.000000E+000  0.000000E+000  0.479960E+000  0.000000E+000  0.000000E+000 -0.577403E-002
  0.000000E+000  0.000000E+000  0.481964E+000  0.000000E+000  0.000000E+000 -0.577644E-002
  0.000000E+000  0.000000E+000  0.483968E+000  0.000000E+000  0.000000E+000 -0.577895E-002
  0.000000E+000  0.000000E+000  0.485972E+000  0.000000E+000  0.000000E+000 -0.578155E-002
  0.000000E+000  0.000000E+000  0.487976E+000  0.000000E+000  0.000000E+000 -0.578424E-002
  0.000000E+000  0.000000E+000  0.489980E+000  0.000000E+000  0.000000E+000 -0.578702E-002
  0.000000E+000  0.000000E+000  0.491984E+000  0.000000E+000  0.000000E+000 -0.578990E-002
  0.000000E+000  0.000000E+000  0.493988E+000  0.000000E+000  0.000000E+000 -0.579288E-002
  0.000000E+000  0.000000E+000  0.495992E+000  0.000000E+000  0.000000E+000 -0.579595E-002
  0.000000E+000  0.000000E+000  0.497996E+000  0.000000E+000  0.000000E+000 -0.579912E-002
  0.000000E+000  0.000000E+000  0.500000E+000  0.000000E+000  0.000000E+000 -0.580238E-002
  0.000000E+000  0.000000E+000  0.502004E+000  0.000000E+000  0.000000E+000 -0.580576E-002
  0.000000E+000  0.000000E+000  0.504008E+000  0.000000E+000  0.000000E+000 -0.580919E-002
  0.000000E+000  0.000000E+000  0.506012E+000  0.000000E+000  0.000000E+000 -0.581267E-002
  0.000000E+000  0.000000E+000  0.508016E+000  0.000000E+000  0.000000E+000 -0.581620E-002
  0.000000E+000  0.000000E+000  0.510020E+000  0.000000E+000  0.000000E+000 -0.581978E-002
  0.000000E+000  0.000000E+000  0.512024E+000  0.000000E+000  0.000000E+000 -0.582341E-002
  0.000000E+000  0.000000E+000  0.514028E+000  0.000000E+000  0.000000E+000 -0.582709E-002
  0.000000E+000  0.000000E+000  0.516032E+000  0.000000E+000  0.000000E+000 -0.583083E-002
  0.000000E+000  0.000000E+000  0.518036E+000  0.000000E+000  0.000000E+000 -0.583462E-002
  0.000000E+000  0.000000E+000  0.520040E+000  0.000000E+000  0.000000E+000 -0.583846E-002
  0.000000E+000  0.000000E+000  0.522044E+000  0.000000E+000  0.000000E+000 -0.584235E-002
  0.000000E+000  0.000000E+000  0.524048E+000  0.000000E+000  0.000000E+000 -0.584631E-002
  0.000000E+000  0.000000E+000  0.526052E+000  0.000000E+000  0.000000E+000 -0.585031E-002
  0.000000E+000  0.000000E+000  0.528056E+000  0.000000E+000  0.000000E+000 -0.585437E-002
  0.000000E+000  0.000000E+000  0.530060E+000  0.000000E+000  0.000000E+000 -0.585849E-002
  0.000000E+000  0.000000E+000  0.532064E+000  0.000000E+000  0.000000E+000 -0.586266E-002
  0.000000E+000  0.000000E+000  0.534068E+000  0.000000E+000  0.000000E+000 -0.586689E-002
  0.000000E+000  0.000000E+000  0.536072E+000  0.000000E+000  0.000000E+000 -0.587118E-002
  0.000000E+000  0.000000E+000  0.538076E+000  0.000000E+000  0.000000E+000 -0.587553E-002
  0.000000E+000  0.000000E+000  0.540080E+000  0.000000E+000  0.000000E+000 -0.587993E-002
  0.000000E+000  0.000000E+000  0.542084E+000  0.000000E+000  0.000000E+000 -0.588439E-002
  0.000000E+000  0.000000E+000  0.544088E+000  0.000000E+000  0.000000E+000 -0.588892E-002
  0.000000E+000  0.000000E+000  0.546092E+000  0.000000E+000  0.000000E+000 -0.589350E-002
  0.000000E+000  0.000000E+000  0.548096E+000  0.000000E+000  0.000000E+000 -0.589814E-002
  0.000000E+000  0.000000E+000  0.550100E+000  0.000000E+000  0.000000E+000 -0.590285E-002
  0.000000E+000  0.000000E+000  0.552104E+000  0.000000E+000  0.000000E+000 -0.590761E-002
  0.000000E+000  0.000000E+000  0.554108E+000  0.000000E+000  0.000000E+000 -0.591244E-002
  0.000000E+000  0.000000E+000  0.556112E+000  0.000000E+000  0.000000E+000 -0.591733E-002
  0.000000E+000  0.000000E+000  0.558116E+000  0.000000E+000  0.000000E+000 -0.592228E-002
  0.000000E+000  0.000000E+000  0.560120E+000  0.000000E+000  0.000000E+000 -0.592729E-002
  0.000000E+000  0.000000E+000  0.562124E+000  0.000000E+000  0.000000E+000 -0.593237E-002
  0.000000E+000  0.000000E+000  0.564128E+000  0.000000E+000  0.000000E+000 -0.593751E-002
  0.000000E+000  0.000000E+000  0.566132E+000  0.000000E+000  0.000000E+000 -0.594272E-002
  0.000000E+000  0.000000E+000  0.568136E+000  0.000000E+000  0.000000E+000 -0.594799E-002
  0.000000E+000  0.000000E+000  0.570140E+000  0.000000E+000  0.000000E+000 -0.595333E-002
  0.000000E+000  0.000000E+000  0.572144E+000  0.000000E+000  0.000000E+000 -0.595873E-002
  0.000000E+000  0.000000E+000  0.574148E+000  0.000000E+000  0.000000E+000 -0.596420E-002
  0.000000E+000  0.000000E+000  0.576152E+000  0.000000E+000  0.000000E+000 -0.596974E-002
  0.000000E+000  0.000000E+000  0.578156E+000  0.000000E+000  0.000000E+000 -0.597534E-002
  0.000000E+000  0.000000E+000  0.580160E+000  0.000000E+000  0.000000E+000 -0.598101E-002
  0.000000E+000  0.000000E+000  0.582164E+000  0.000000E+000  0.000000E+000 -0.598675E-002
  0.000000E+000  0.000000E+000  0.584168E+000  0.000000E+000  0.000000E+000 -0.599256E-002
  0.000000E+000  0.000000E+000  0.586172E+000  0.000000E+000  0.000000E+000 -0.599844E-002
  0.000000E+000  0.000000E+000  0.588176E+000  0.000000E+000  0.000000E+000 -0.600438E-002
  0.000000E+000  0.000000E+000  0.590180E+000  0.000000E+000  0.000000E+000 -0.601040E-002
  0.000000E+000  0.000000E+000  0.592184E+000  0.000000E+000  0.000000E+000 -0.601649E-002
  0.000000E+000  0.000000E+000  0.594188E+000  0.000000E+000  0.000000E+000 -0.602264E-002
  0.000000E+000  0.000000E+000  0.596192E+000  0.000000E+000  0.000000E+000 -0.602887E-002
  0.000000E+000  0.000000E+000  0.598196E+000  0.000000E+000  0.000000E+000 -0.603517E-002
  0.000000E+000  0.000000E+000  0.600200E+000  0.000000E+000  0.000000E+000 -0.604154E-002
  0.000000E+000  0.000000E+000  0.602204E+000  0.000000E+000  0.000000E+000 -0.604798E-002
  0.000000E+000  0.000000E+000  0.604208E+000  0.000000E+000  0.000000E+000 -0.605450E-002
  0.000000E+000  0.000000E+000  0.606212E+000  0.000000E+000  0.000000E+000 -0.606108E-002
  0.000000E+000  0.000000E+000  0.608216E+000  0.000000E+000  0.000000E+000 -0.606775E-002
  0.000000E+000  0.000000E+000  0.610220E+000  0.000000E+000  0.000000E+000 -0.607448E-002
  0.000000E+000  0.000000E+000  0.612224E+000  0.000000E+000  0.000000E+000 -0.608129E-002
  0.000000E+000  0.000000E+000  0.614228E+000  0.000000E+000  0.000000E+000 -0.608817E-002
  0.000000E+000  0.000000E+000  0.616232E+000  0.000000E+000  0.000000E+000 -0.609513E-002
  0.000000E+000  0.000000E+000  0.618236E+000  0.000000E+000  0.000000E+000 -0.610216E-002
  0.000000E+000  0.000000E+000  0.620240E+000  0.000000E+000  0.000000E+000 -0.610927E-002
  0.000000E+000  0.000000E+000  0.622244E+000  0.000000E+000  0.000000E+000 -0.611645E-002
  0.000000E+000  0.000000E+000  0.624248E+000  0.000000E+000  0.000000E+000 -0.612371E-002
  0.000000E+000  0.000000E+000  0.626253E+000  0.000000E+000  0.000000E+000 -0.613105E-002
  0.000000E+000  0.000000E+000  0.628257E+000  0.000000E+000  0.000000E+000 -0.613846E-002
  0.000000E+000  0.000000E+000  0.630261E+000  0.000000E+000  0.000000E+000 -0.614595E-002
  0.000000E+000  0.000000E+000  0.632265E+000  0.000000E+000  0.000000E+000 -0.615352E-002
  0.000000E+000  0.000000E+000  0.634269E+000  0.000000E+000  0.000000E+000 -0.616116E-002
  0.000000E+000  0.000000E+000  0.636273E+000  0.000000E+000  0.000000E+000 -0.616888E-002
  0.000000E+000  0.000000E+000  0.638277E+000  0.000000E+000  0.000000E+000 -0.617668E-002
  0.000000E+000  0.000000E+000  0.640281E+000  0.000000E+000  0.000000E+000 -0.618456E-002
  0.000000E+000  0.000000E+000  0.642285E+000  0.000000E+000  0.000000E+000 -0.619252E-002
  0.000000E+000  0.000000E+000  0.644289E+000  0.000000E+000  0.000000E+000 -0.620055E-002
  0.000000E+000  0.000000E+000  0.646293E+000  0.000000E+000  0.000000E+000 -0.620867E-002
  0.000000E+000  0.000000E+000  0.648297E+000  0.000000E+000  0.000000E+000 -0.621686E-002
  0.000000E+000  0.000000E+000  0.650301E+000  0.000000E+000  0.000000E+000 -0.622514E-002
  0.000000E+000  0.000000E+000  0.652305E+000  0.000000E+000  0.000000E+000 -0.623349E-002
  0.000000E+000  0.000000E+000  0.654309E+000  0.000000E+000  0.000000E+000 -0.624192E-002