title = "dataset transp-updrld"
variables = "time", "delta t", "courant_max", "courant_num", "iter_ts","iter_vs","iter_rt", "ts_min"
zone t = "time step data", f=point
  1.00000E-10  1.00000E-10  0.00000E+00   0   1   2   0    none    
  6.00000E-10  5.00000E-10  0.00000E+00   0   1   2   0    varsat  
  3.10000E-09  2.50000E-09  0.00000E+00   0   1   2   0    varsat  
  1.56000E-08  1.25000E-08  0.00000E+00   0   1   2   0    varsat  
  7.81000E-08  6.25000E-08  0.00000E+00   0   1   3   0    varsat  
  3.90600E-07  3.12500E-07  0.00000E+00   0   1   3   0    varsat  
  1.95310E-06  1.56250E-06  0.00000E+00   0   1   4   0    varsat  
  9.76560E-06  7.81250E-06  0.00000E+00   0   1   4   0    varsat  
  4.88281E-05  3.90625E-05  0.00000E+00   0   1   5   0    varsat  
  2.44141E-04  1.95313E-04  0.00000E+00   0   1   5   0    varsat  
  7.84692E-04  5.40552E-04  0.00000E+00   0   1   5   0    varsat  
  2.70360E-03  1.91891E-03  0.00000E+00   0   1   6   0    varsat  
  8.42075E-03  5.71715E-03  0.00000E+00   0   1   5   0    varsat  
  2.84378E-02  2.00170E-02  0.00000E+00   0   1   5   0    varsat  
  1.09143E-01  8.07053E-02  0.00000E+00   0   1   5   0    varsat  
  5.12669E-01  4.03526E-01  0.00000E+00   0   1   5   0    varsat  
  1.00000E+00  4.87331E-01  0.00000E+00   0   1   4   0    varsat  
  2.00000E+00  1.00000E+00  0.00000E+00   0   1  11   0    varsat  
  2.59746E+00  5.97458E-01  0.00000E+00   0   1   5   0    varsat  
  3.00000E+00  4.02542E-01  0.00000E+00   0   1   4   0    varsat  
  4.00000E+00  1.00000E+00  0.00000E+00   0   1   5   0    varsat  
  5.00000E+00  1.00000E+00  0.00000E+00   0   1   5   0    varsat  
  6.00000E+00  1.00000E+00  0.00000E+00   0   1   5   0    varsat  
  7.00000E+00  1.00000E+00  0.00000E+00   0   1   4   0    varsat  
  8.00000E+00  1.00000E+00  0.00000E+00   0   1   5   0    varsat  
  9.00000E+00  1.00000E+00  0.00000E+00   0   1   4   0    varsat  
  1.00000E+01  1.00000E+00  0.00000E+00   0   1   4   0    varsat  
  1.10000E+01  1.00000E+00  0.00000E+00   0   1   4   0    varsat  
  1.20000E+01  1.00000E+00  0.00000E+00   0   1   4   0    varsat  
  1.30000E+01  1.00000E+00  0.00000E+00   0   1   4   0    varsat  
  1.40000E+01  1.00000E+00  0.00000E+00   0   1   4   0    varsat  
  1.50000E+01  1.00000E+00  0.00000E+00   0   1   4   0    varsat  
  1.60000E+01  1.00000E+00  0.00000E+00   0   1   4   0    varsat  
  1.70000E+01  1.00000E+00  0.00000E+00   0   1   4   0    varsat  
  1.80000E+01  1.00000E+00  0.00000E+00   0   1   4   0    varsat  
  1.90000E+01  1.00000E+00  0.00000E+00   0   1   4   0    varsat  
  2.00000E+01  1.00000E+00  0.00000E+00   0   1   4   0    varsat  
  2.10000E+01  1.00000E+00  0.00000E+00   0   1   5   0    varsat  
  2.20000E+01  1.00000E+00  0.00000E+00   0   1   5   0    varsat  
  2.30000E+01  1.00000E+00  0.00000E+00   0   1   4   0    varsat  
  2.40000E+01  1.00000E+00  0.00000E+00   0   1   7   0    varsat  
  2.50000E+01  1.00000E+00  0.00000E+00   0   1   5   0    varsat  
  2.60000E+01  1.00000E+00  0.00000E+00   0   1   8   0    varsat  
  2.70000E+01  1.00000E+00  0.00000E+00   0   1   7   0    varsat  
  2.80000E+01  1.00000E+00  0.00000E+00   0   1   6   0    varsat  
  2.90000E+01  1.00000E+00  0.00000E+00   0   1   5   0    varsat  
  3.00000E+01  1.00000E+00  0.00000E+00   0   1   5   0    varsat  
  3.10000E+01  1.00000E+00  0.00000E+00   0   1   5   0    varsat  
  3.20000E+01  1.00000E+00  0.00000E+00   0   1   5   0    varsat  
  3.30000E+01  1.00000E+00  0.00000E+00   0   1   5   0    varsat  
  3.40000E+01  1.00000E+00  0.00000E+00   0   1   4   0    varsat  
  3.50000E+01  1.00000E+00  0.00000E+00   0   1   5   0    varsat  
  3.60000E+01  1.00000E+00  0.00000E+00   0   1   5   0    varsat  
  3.70000E+01  1.00000E+00  0.00000E+00   0   1   5   0    varsat  
  3.80000E+01  1.00000E+00  0.00000E+00   0   1   5   0    varsat  
  3.90000E+01  1.00000E+00  0.00000E+00   0   1   4   0    varsat  
  4.00000E+01  1.00000E+00  0.00000E+00   0   1   4   0    varsat  
  4.10000E+01  1.00000E+00  0.00000E+00   0   1   4   0    varsat  
  4.20000E+01  1.00000E+00  0.00000E+00   0   1   4   0    varsat  
  4.30000E+01  1.00000E+00  0.00000E+00   0   1   4   0    varsat  
  4.40000E+01  1.00000E+00  0.00000E+00   0   1   4   0    varsat  
  4.50000E+01  1.00000E+00  0.00000E+00   0   1   4   0    varsat  
  4.60000E+01  1.00000E+00  0.00000E+00   0   1   4   0    varsat  
  4.70000E+01  1.00000E+00  0.00000E+00   0   1   4   0    varsat  
  4.80000E+01  1.00000E+00  0.00000E+00   0   1  13   0    varsat  
  4.89596E+01  9.59582E-01  0.00000E+00   0   1   5   0    varsat  
  4.90000E+01  4.04181E-02  0.00000E+00   0   1   3   0    varsat  
  4.92021E+01  2.02090E-01  0.00000E+00   0   1   4   0    varsat  
  5.00000E+01  7.97910E-01  0.00000E+00   0   1   4   0    varsat  
