title = "dataset transp-updrld"
variables = "time", "absolute mass balance error", "relative mass balance error", "absolute cumulative mass balance error", "relative cumulative mass balance error" 
zone t = "mass balance error -  variably saturated flow", f=point
  1.0000E-10  8.1549E-12  3.3650E-12  8.1549E-12  3.3650E-12
  6.0000E-10 -1.8986E-16 -7.8341E-17  8.1547E-12  3.3649E-12
  3.1000E-09  1.2219E-15  5.0418E-16  8.1559E-12  3.3654E-12
  1.5600E-08 -4.7094E-16 -1.9433E-16  8.1555E-12  3.3652E-12
  7.8100E-08 -2.1459E-15 -8.8546E-16  8.1533E-12  3.3643E-12
  3.9060E-07  1.7739E-16  7.3198E-17  8.1535E-12  3.3644E-12
  1.9531E-06 -1.1338E-15 -4.6785E-16  8.1524E-12  3.3639E-12
  9.7656E-06 -1.2863E-15 -5.3075E-16  8.1511E-12  3.3633E-12
  4.8828E-05  1.8431E-15  7.6047E-16  8.1529E-12  3.3638E-12
  2.4414E-04  6.0715E-16  2.5047E-16  8.1535E-12  3.3636E-12
  7.8469E-04  1.7179E-15  7.0852E-16  8.1552E-12  3.3636E-12
  2.7036E-03  1.0918E-15  4.5015E-16  8.1563E-12  3.3628E-12
  8.4208E-03  2.7412E-14  1.1295E-14  8.1837E-12  3.3721E-12
  2.8438E-02 -9.0282E-16 -3.7163E-16  8.1828E-12  3.3683E-12
  1.0914E-01  3.4230E-14  1.4064E-14  8.2171E-12  3.3761E-12
  5.1267E-01 -2.1000E-14 -8.5870E-15  8.1961E-12  3.3514E-12
  1.0000E+00  5.3048E-13  2.1581E-13  8.7266E-12  3.5501E-12
  2.0000E+00  7.5470E-02  3.1679E-02  7.5470E-02  3.1679E-02
  2.5975E+00  2.1713E-13  8.9884E-14  7.5470E-02  3.1242E-02
  3.0000E+00  1.4856E-12  6.0908E-13  7.5470E-02  3.0941E-02
  4.0000E+00  1.3245E-12  5.5673E-13  7.5470E-02  3.1724E-02
  5.0000E+00  2.0036E-13  8.6259E-14  7.5470E-02  3.2491E-02
  6.0000E+00  5.6639E-13  2.4931E-13  7.5470E-02  3.3220E-02
  7.0000E+00  1.3687E-12  6.1481E-13  7.5470E-02  3.3901E-02
  8.0000E+00  1.5759E+00  7.2629E-01  1.6514E+00  7.6107E-01
  9.0000E+00  1.6892E+00  7.9797E-01  3.3406E+00  1.5781E+00
  1.0000E+01  1.4003E+00  6.7615E-01  4.7409E+00  2.2892E+00
  1.1000E+01  9.7083E-01  4.7757E-01  5.7118E+00  2.8097E+00
  1.2000E+01  6.0737E-01  3.0348E-01  6.3191E+00  3.1574E+00
  1.3000E+01  1.2332E+00  6.2720E-01  7.5523E+00  3.8411E+00
  1.4000E+01  1.0185E+00  5.2627E-01  8.5708E+00  4.4287E+00
  1.5000E+01  1.1406E+00  5.9874E-01  9.7114E+00  5.0978E+00
  1.6000E+01  1.0696E+00  5.6983E-01  1.0781E+01  5.7435E+00
  1.7000E+01  1.3159E+00  7.1201E-01  1.2097E+01  6.5455E+00
  1.8000E+01  1.0668E+00  5.8523E-01  1.3164E+01  7.2212E+00
  1.9000E+01  1.0850E+00  6.0322E-01  1.4249E+01  7.9218E+00
  2.0000E+01  9.7937E-01  5.5130E-01  1.5228E+01  8.5721E+00
  2.1000E+01  5.0925E-01  2.8688E-01  1.5737E+01  8.8655E+00
  2.2000E+01  6.0557E-01  3.4440E-01  1.6343E+01  9.2945E+00
  2.3000E+01  1.2949E+00  7.4620E-01  1.7638E+01  1.0164E+01
  2.4000E+01  8.0977E-01  4.5932E-01  1.8448E+01  1.0464E+01
  2.5000E+01  8.4330E-01  4.8308E-01  1.9291E+01  1.1051E+01
  2.6000E+01  5.2516E-01  2.8920E-01  1.9816E+01  1.0912E+01
  2.7000E+01  7.6611E-01  3.8514E-01  2.0582E+01  1.0347E+01
  2.8000E+01  3.8198E-01  1.7639E-01  2.0964E+01  9.6807E+00
  2.9000E+01  3.2254E-01  1.4460E-01  2.1287E+01  9.5435E+00
  3.0000E+01  2.0752E-01  8.6637E-02  2.1494E+01  8.9737E+00
  3.1000E+01  2.7443E-01  1.1482E-01  2.1769E+01  9.1077E+00
  3.2000E+01  6.9075E-01  2.9155E-01  2.2459E+01  9.4795E+00
  3.3000E+01  1.0444E+00  4.5238E-01  2.3504E+01  1.0180E+01
  3.4000E+01  1.4275E+00  6.2336E-01  2.4931E+01  1.0887E+01
  3.5000E+01  6.5728E-01  2.9232E-01  2.5589E+01  1.1380E+01
  3.6000E+01  1.0067E+00  4.5817E-01  2.6595E+01  1.2104E+01
  3.7000E+01  1.6977E+00  7.9216E-01  2.8293E+01  1.3202E+01
  3.8000E+01  2.4469E+00  1.1732E+00  3.0740E+01  1.4739E+01
  3.9000E+01  2.3806E+00  1.1712E+00  3.3121E+01  1.6294E+01
  4.0000E+01  2.3156E+00  1.1672E+00  3.5436E+01  1.7862E+01
  4.1000E+01  2.4906E+00  1.2863E+00  3.7927E+01  1.9587E+01
  4.2000E+01  2.1825E+00  1.1521E+00  4.0109E+01  2.1172E+01
  4.3000E+01  1.9873E+00  1.0703E+00  4.2097E+01  2.2672E+01
  4.4000E+01  1.4906E+00  8.1635E-01  4.3587E+01  2.3871E+01
  4.5000E+01  1.5015E+00  8.3572E-01  4.5089E+01  2.5096E+01
  4.6000E+01  1.1694E+00  6.5990E-01  4.6258E+01  2.6104E+01
  4.7000E+01  7.5092E-01  4.2763E-01  4.7009E+01  2.6770E+01
  4.8000E+01  1.0704E-01  5.7704E-02  4.7116E+01  2.5400E+01
  4.8960E+01  8.6595E-01  4.5304E-01  4.7982E+01  2.5103E+01
  4.9000E+01  3.6542E-02  1.9094E-02  4.8019E+01  2.5091E+01
  4.9202E+01  2.1431E-01  1.1201E-01  4.8233E+01  2.5210E+01
  5.0000E+01  8.3943E-01  4.3918E-01  4.9072E+01  2.5674E+01
