title = "dataset transp-updrld"
variables = "x", "y", "z", "vx", "vy", "vz"
zone t = "velocities, solution time =  4.000E+00 days        " i =  499, j =    1, k =    1,  f=point
  0.000000E+000  0.000000E+000  0.100200E-002  0.000000E+000  0.000000E+000 -0.603842E-002
  0.000000E+000  0.000000E+000  0.300601E-002  0.000000E+000  0.000000E+000 -0.603792E-002
  0.000000E+000  0.000000E+000  0.501002E-002  0.000000E+000  0.000000E+000 -0.603709E-002
  0.000000E+000  0.000000E+000  0.701403E-002  0.000000E+000  0.000000E+000 -0.603605E-002
  0.000000E+000  0.000000E+000  0.901804E-002  0.000000E+000  0.000000E+000 -0.603485E-002
  0.000000E+000  0.000000E+000  0.110220E-001  0.000000E+000  0.000000E+000 -0.603353E-002
  0.000000E+000  0.000000E+000  0.130261E-001  0.000000E+000  0.000000E+000 -0.603212E-002
  0.000000E+000  0.000000E+000  0.150301E-001  0.000000E+000  0.000000E+000 -0.603062E-002
  0.000000E+000  0.000000E+000  0.170341E-001  0.000000E+000  0.000000E+000 -0.602906E-002
  0.000000E+000  0.000000E+000  0.190381E-001  0.000000E+000  0.000000E+000 -0.602743E-002
  0.000000E+000  0.000000E+000  0.210421E-001  0.000000E+000  0.000000E+000 -0.602575E-002
  0.000000E+000  0.000000E+000  0.230461E-001  0.000000E+000  0.000000E+000 -0.602403E-002
  0.000000E+000  0.000000E+000  0.250501E-001  0.000000E+000  0.000000E+000 -0.602227E-002
  0.000000E+000  0.000000E+000  0.270541E-001  0.000000E+000  0.000000E+000 -0.602047E-002
  0.000000E+000  0.000000E+000  0.290581E-001  0.000000E+000  0.000000E+000 -0.601863E-002
  0.000000E+000  0.000000E+000  0.310621E-001  0.000000E+000  0.000000E+000 -0.601676E-002
  0.000000E+000  0.000000E+000  0.330661E-001  0.000000E+000  0.000000E+000 -0.601487E-002
  0.000000E+000  0.000000E+000  0.350701E-001  0.000000E+000  0.000000E+000 -0.601295E-002
  0.000000E+000  0.000000E+000  0.370741E-001  0.000000E+000  0.000000E+000 -0.601100E-002
  0.000000E+000  0.000000E+000  0.390782E-001  0.000000E+000  0.000000E+000 -0.600903E-002
  0.000000E+000  0.000000E+000  0.410822E-001  0.000000E+000  0.000000E+000 -0.600705E-002
  0.000000E+000  0.000000E+000  0.430862E-001  0.000000E+000  0.000000E+000 -0.600504E-002
  0.000000E+000  0.000000E+000  0.450902E-001  0.000000E+000  0.000000E+000 -0.600301E-002
  0.000000E+000  0.000000E+000  0.470942E-001  0.000000E+000  0.000000E+000 -0.600097E-002
  0.000000E+000  0.000000E+000  0.490982E-001  0.000000E+000  0.000000E+000 -0.599892E-002
  0.000000E+000  0.000000E+000  0.511022E-001  0.000000E+000  0.000000E+000 -0.599684E-002
  0.000000E+000  0.000000E+000  0.531062E-001  0.000000E+000  0.000000E+000 -0.599476E-002
  0.000000E+000  0.000000E+000  0.551102E-001  0.000000E+000  0.000000E+000 -0.599266E-002
  0.000000E+000  0.000000E+000  0.571142E-001  0.000000E+000  0.000000E+000 -0.599055E-002
  0.000000E+000  0.000000E+000  0.591182E-001  0.000000E+000  0.000000E+000 -0.598843E-002
  0.000000E+000  0.000000E+000  0.611222E-001  0.000000E+000  0.000000E+000 -0.598630E-002
  0.000000E+000  0.000000E+000  0.631263E-001  0.000000E+000  0.000000E+000 -0.598415E-002
  0.000000E+000  0.000000E+000  0.651303E-001  0.000000E+000  0.000000E+000 -0.598200E-002
  0.000000E+000  0.000000E+000  0.671343E-001  0.000000E+000  0.000000E+000 -0.597984E-002
  0.000000E+000  0.000000E+000  0.691383E-001  0.000000E+000  0.000000E+000 -0.597767E-002
  0.000000E+000  0.000000E+000  0.711423E-001  0.000000E+000  0.000000E+000 -0.597549E-002
  0.000000E+000  0.000000E+000  0.731463E-001  0.000000E+000  0.000000E+000 -0.597331E-002
  0.000000E+000  0.000000E+000  0.751503E-001  0.000000E+000  0.000000E+000 -0.597112E-002
  0.000000E+000  0.000000E+000  0.771543E-001  0.000000E+000  0.000000E+000 -0.596892E-002
  0.000000E+000  0.000000E+000  0.791583E-001  0.000000E+000  0.000000E+000 -0.596671E-002
  0.000000E+000  0.000000E+000  0.811623E-001  0.000000E+000  0.000000E+000 -0.596450E-002
  0.000000E+000  0.000000E+000  0.831663E-001  0.000000E+000  0.000000E+000 -0.596228E-002
  0.000000E+000  0.000000E+000  0.851703E-001  0.000000E+000  0.000000E+000 -0.596006E-002
  0.000000E+000  0.000000E+000  0.871743E-001  0.000000E+000  0.000000E+000 -0.595783E-002
  0.000000E+000  0.000000E+000  0.891784E-001  0.000000E+000  0.000000E+000 -0.595559E-002
  0.000000E+000  0.000000E+000  0.911824E-001  0.000000E+000  0.000000E+000 -0.595335E-002
  0.000000E+000  0.000000E+000  0.931864E-001  0.000000E+000  0.000000E+000 -0.595110E-002
  0.000000E+000  0.000000E+000  0.951904E-001  0.000000E+000  0.000000E+000 -0.594885E-002
  0.000000E+000  0.000000E+000  0.971944E-001  0.000000E+000  0.000000E+000 -0.594660E-002
  0.000000E+000  0.000000E+000  0.991984E-001  0.000000E+000  0.000000E+000 -0.594434E-002
  0.000000E+000  0.000000E+000  0.101202E+000  0.000000E+000  0.000000E+000 -0.594208E-002
  0.000000E+000  0.000000E+000  0.103206E+000  0.000000E+000  0.000000E+000 -0.593981E-002
  0.000000E+000  0.000000E+000  0.105210E+000  0.000000E+000  0.000000E+000 -0.593753E-002
  0.000000E+000  0.000000E+000  0.107214E+000  0.000000E+000  0.000000E+000 -0.593526E-002
  0.000000E+000  0.000000E+000  0.109218E+000  0.000000E+000  0.000000E+000 -0.593298E-002
  0.000000E+000  0.000000E+000  0.111222E+000  0.000000E+000  0.000000E+000 -0.593069E-002
  0.000000E+000  0.000000E+000  0.113226E+000  0.000000E+000  0.000000E+000 -0.592840E-002
  0.000000E+000  0.000000E+000  0.115230E+000  0.000000E+000  0.000000E+000 -0.592611E-002
  0.000000E+000  0.000000E+000  0.117234E+000  0.000000E+000  0.000000E+000 -0.592381E-002
  0.000000E+000  0.000000E+000  0.119238E+000  0.000000E+000  0.000000E+000 -0.592151E-002
  0.000000E+000  0.000000E+000  0.121242E+000  0.000000E+000  0.000000E+000 -0.591921E-002
  0.000000E+000  0.000000E+000  0.123246E+000  0.000000E+000  0.000000E+000 -0.591690E-002
  0.000000E+000  0.000000E+000  0.125251E+000  0.000000E+000  0.000000E+000 -0.591459E-002
  0.000000E+000  0.000000E+000  0.127255E+000  0.000000E+000  0.000000E+000 -0.591227E-002
  0.000000E+000  0.000000E+000  0.129259E+000  0.000000E+000  0.000000E+000 -0.590995E-002
  0.000000E+000  0.000000E+000  0.131263E+000  0.000000E+000  0.000000E+000 -0.590763E-002
  0.000000E+000  0.000000E+000  0.133267E+000  0.000000E+000  0.000000E+000 -0.590530E-002
  0.000000E+000  0.000000E+000  0.135271E+000  0.000000E+000  0.000000E+000 -0.590297E-002
  0.000000E+000  0.000000E+000  0.137275E+000  0.000000E+000  0.000000E+000 -0.590064E-002
  0.000000E+000  0.000000E+000  0.139279E+000  0.000000E+000  0.000000E+000 -0.589830E-002
  0.000000E+000  0.000000E+000  0.141283E+000  0.000000E+000  0.000000E+000 -0.589595E-002
  0.000000E+000  0.000000E+000  0.143287E+000  0.000000E+000  0.000000E+000 -0.589360E-002
  0.000000E+000  0.000000E+000  0.145291E+000  0.000000E+000  0.000000E+000 -0.589125E-002
  0.000000E+000  0.000000E+000  0.147295E+000  0.000000E+000  0.000000E+000 -0.588889E-002
  0.000000E+000  0.000000E+000  0.149299E+000  0.000000E+000  0.000000E+000 -0.588653E-002
  0.000000E+000  0.000000E+000  0.151303E+000  0.000000E+000  0.000000E+000 -0.588416E-002
  0.000000E+000  0.000000E+000  0.153307E+000  0.000000E+000  0.000000E+000 -0.588179E-002
  0.000000E+000  0.000000E+000  0.155311E+000  0.000000E+000  0.000000E+000 -0.587942E-002
  0.000000E+000  0.000000E+000  0.157315E+000  0.000000E+000  0.000000E+000 -0.587703E-002
  0.000000E+000  0.000000E+000  0.159319E+000  0.000000E+000  0.000000E+000 -0.587465E-002
  0.000000E+000  0.000000E+000  0.161323E+000  0.000000E+000  0.000000E+000 -0.587226E-002
  0.000000E+000  0.000000E+000  0.163327E+000  0.000000E+000  0.000000E+000 -0.586986E-002
  0.000000E+000  0.000000E+000  0.165331E+000  0.000000E+000  0.000000E+000 -0.586746E-002
  0.000000E+000  0.000000E+000  0.167335E+000  0.000000E+000  0.000000E+000 -0.586505E-002
  0.000000E+000  0.000000E+000  0.169339E+000  0.000000E+000  0.000000E+000 -0.586263E-002
  0.000000E+000  0.000000E+000  0.171343E+000  0.000000E+000  0.000000E+000 -0.586021E-002
  0.000000E+000  0.000000E+000  0.173347E+000  0.000000E+000  0.000000E+000 -0.585779E-002
  0.000000E+000  0.000000E+000  0.175351E+000  0.000000E+000  0.000000E+000 -0.585536E-002
  0.000000E+000  0.000000E+000  0.177355E+000  0.000000E+000  0.000000E+000 -0.585292E-002
  0.000000E+000  0.000000E+000  0.179359E+000  0.000000E+000  0.000000E+000 -0.585047E-002
  0.000000E+000  0.000000E+000  0.181363E+000  0.000000E+000  0.000000E+000 -0.584802E-002
  0.000000E+000  0.000000E+000  0.183367E+000  0.000000E+000  0.000000E+000 -0.584556E-002
  0.000000E+000  0.000000E+000  0.185371E+000  0.000000E+000  0.000000E+000 -0.584310E-002
  0.000000E+000  0.000000E+000  0.187375E+000  0.000000E+000  0.000000E+000 -0.584062E-002
  0.000000E+000  0.000000E+000  0.189379E+000  0.000000E+000  0.000000E+000 -0.583814E-002
  0.000000E+000  0.000000E+000  0.191383E+000  0.000000E+000  0.000000E+000 -0.583565E-002
  0.000000E+000  0.000000E+000  0.193387E+000  0.000000E+000  0.000000E+000 -0.583315E-002
  0.000000E+000  0.000000E+000  0.195391E+000  0.000000E+000  0.000000E+000 -0.583065E-002
  0.000000E+000  0.000000E+000  0.197395E+000  0.000000E+000  0.000000E+000 -0.582814E-002
  0.000000E+000  0.000000E+000  0.199399E+000  0.000000E+000  0.000000E+000 -0.582561E-002
  0.000000E+000  0.000000E+000  0.201403E+000  0.000000E+000  0.000000E+000 -0.582308E-002
  0.000000E+000  0.000000E+000  0.203407E+000  0.000000E+000  0.000000E+000 -0.582054E-002
  0.000000E+000  0.000000E+000  0.205411E+000  0.000000E+000  0.000000E+000 -0.581800E-002
  0.000000E+000  0.000000E+000  0.207415E+000  0.000000E+000  0.000000E+000 -0.581544E-002
  0.000000E+000  0.000000E+000  0.209419E+000  0.000000E+000  0.000000E+000 -0.581287E-002
  0.000000E+000  0.000000E+000  0.211423E+000  0.000000E+000  0.000000E+000 -0.581029E-002
  0.000000E+000  0.000000E+000  0.213427E+000  0.000000E+000  0.000000E+000 -0.580770E-002
  0.000000E+000  0.000000E+000  0.215431E+000  0.000000E+000  0.000000E+000 -0.580511E-002
  0.000000E+000  0.000000E+000  0.217435E+000  0.000000E+000  0.000000E+000 -0.580250E-002
  0.000000E+000  0.000000E+000  0.219439E+000  0.000000E+000  0.000000E+000 -0.579988E-002
  0.000000E+000  0.000000E+000  0.221443E+000  0.000000E+000  0.000000E+000 -0.579725E-002
  0.000000E+000  0.000000E+000  0.223447E+000  0.000000E+000  0.000000E+000 -0.579460E-002
  0.000000E+000  0.000000E+000  0.225451E+000  0.000000E+000  0.000000E+000 -0.579195E-002
  0.000000E+000  0.000000E+000  0.227455E+000  0.000000E+000  0.000000E+000 -0.578928E-002
  0.000000E+000  0.000000E+000  0.229459E+000  0.000000E+000  0.000000E+000 -0.578660E-002
  0.000000E+000  0.000000E+000  0.231463E+000  0.000000E+000  0.000000E+000 -0.578391E-002
  0.000000E+000  0.000000E+000  0.233467E+000  0.000000E+000  0.000000E+000 -0.578121E-002
  0.000000E+000  0.000000E+000  0.235471E+000  0.000000E+000  0.000000E+000 -0.577849E-002
  0.000000E+000  0.000000E+000  0.237475E+000  0.000000E+000  0.000000E+000 -0.577576E-002
  0.000000E+000  0.000000E+000  0.239479E+000  0.000000E+000  0.000000E+000 -0.577302E-002
  0.000000E+000  0.000000E+000  0.241483E+000  0.000000E+000  0.000000E+000 -0.577026E-002
  0.000000E+000  0.000000E+000  0.243487E+000  0.000000E+000  0.000000E+000 -0.576749E-002
  0.000000E+000  0.000000E+000  0.245491E+000  0.000000E+000  0.000000E+000 -0.576470E-002
  0.000000E+000  0.000000E+000  0.247495E+000  0.000000E+000  0.000000E+000 -0.576190E-002
  0.000000E+000  0.000000E+000  0.249499E+000  0.000000E+000  0.000000E+000 -0.575908E-002
  0.000000E+000  0.000000E+000  0.251503E+000  0.000000E+000  0.000000E+000 -0.575625E-002
  0.000000E+000  0.000000E+000  0.253507E+000  0.000000E+000  0.000000E+000 -0.575341E-002
  0.000000E+000  0.000000E+000  0.255511E+000  0.000000E+000  0.000000E+000 -0.575054E-002
  0.000000E+000  0.000000E+000  0.257515E+000  0.000000E+000  0.000000E+000 -0.574766E-002
  0.000000E+000  0.000000E+000  0.259519E+000  0.000000E+000  0.000000E+000 -0.574476E-002
  0.000000E+000  0.000000E+000  0.261523E+000  0.000000E+000  0.000000E+000 -0.574185E-002
  0.000000E+000  0.000000E+000  0.263527E+000  0.000000E+000  0.000000E+000 -0.573892E-002
  0.000000E+000  0.000000E+000  0.265531E+000  0.000000E+000  0.000000E+000 -0.573597E-002
  0.000000E+000  0.000000E+000  0.267535E+000  0.000000E+000  0.000000E+000 -0.573300E-002
  0.000000E+000  0.000000E+000  0.269539E+000  0.000000E+000  0.000000E+000 -0.573002E-002
  0.000000E+000  0.000000E+000  0.271543E+000  0.000000E+000  0.000000E+000 -0.572701E-002
  0.000000E+000  0.000000E+000  0.273547E+000  0.000000E+000  0.000000E+000 -0.572399E-002
  0.000000E+000  0.000000E+000  0.275551E+000  0.000000E+000  0.000000E+000 -0.572095E-002
  0.000000E+000  0.000000E+000  0.277555E+000  0.000000E+000  0.000000E+000 -0.571788E-002
  0.000000E+000  0.000000E+000  0.279559E+000  0.000000E+000  0.000000E+000 -0.571480E-002
  0.000000E+000  0.000000E+000  0.281563E+000  0.000000E+000  0.000000E+000 -0.571170E-002
  0.000000E+000  0.000000E+000  0.283567E+000  0.000000E+000  0.000000E+000 -0.570857E-002
  0.000000E+000  0.000000E+000  0.285571E+000  0.000000E+000  0.000000E+000 -0.570543E-002
  0.000000E+000  0.000000E+000  0.287575E+000  0.000000E+000  0.000000E+000 -0.570226E-002
  0.000000E+000  0.000000E+000  0.289579E+000  0.000000E+000  0.000000E+000 -0.569907E-002
  0.000000E+000  0.000000E+000  0.291583E+000  0.000000E+000  0.000000E+000 -0.569586E-002
  0.000000E+000  0.000000E+000  0.293587E+000  0.000000E+000  0.000000E+000 -0.569262E-002
  0.000000E+000  0.000000E+000  0.295591E+000  0.000000E+000  0.000000E+000 -0.568936E-002
  0.000000E+000  0.000000E+000  0.297595E+000  0.000000E+000  0.000000E+000 -0.568608E-002
  0.000000E+000  0.000000E+000  0.299599E+000  0.000000E+000  0.000000E+000 -0.568278E-002
  0.000000E+000  0.000000E+000  0.301603E+000  0.000000E+000  0.000000E+000 -0.567945E-002
  0.000000E+000  0.000000E+000  0.303607E+000  0.000000E+000  0.000000E+000 -0.567609E-002
  0.000000E+000  0.000000E+000  0.305611E+000  0.000000E+000  0.000000E+000 -0.567271E-002
  0.000000E+000  0.000000E+000  0.307615E+000  0.000000E+000  0.000000E+000 -0.566931E-002
  0.000000E+000  0.000000E+000  0.309619E+000  0.000000E+000  0.000000E+000 -0.566587E-002
  0.000000E+000  0.000000E+000  0.311623E+000  0.000000E+000  0.000000E+000 -0.566242E-002
  0.000000E+000  0.000000E+000  0.313627E+000  0.000000E+000  0.000000E+000 -0.565893E-002
  0.000000E+000  0.000000E+000  0.315631E+000  0.000000E+000  0.000000E+000 -0.565542E-002
  0.000000E+000  0.000000E+000  0.317635E+000  0.000000E+000  0.000000E+000 -0.565188E-002
  0.000000E+000  0.000000E+000  0.319639E+000  0.000000E+000  0.000000E+000 -0.564831E-002
  0.000000E+000  0.000000E+000  0.321643E+000  0.000000E+000  0.000000E+000 -0.564471E-002
  0.000000E+000  0.000000E+000  0.323647E+000  0.000000E+000  0.000000E+000 -0.564109E-002
  0.000000E+000  0.000000E+000  0.325651E+000  0.000000E+000  0.000000E+000 -0.563743E-002
  0.000000E+000  0.000000E+000  0.327655E+000  0.000000E+000  0.000000E+000 -0.563375E-002
  0.000000E+000  0.000000E+000  0.329659E+000  0.000000E+000  0.000000E+000 -0.563003E-002
  0.000000E+000  0.000000E+000  0.331663E+000  0.000000E+000  0.000000E+000 -0.562628E-002
  0.000000E+000  0.000000E+000  0.333667E+000  0.000000E+000  0.000000E+000 -0.562251E-002
  0.000000E+000  0.000000E+000  0.335671E+000  0.000000E+000  0.000000E+000 -0.561870E-002
  0.000000E+000  0.000000E+000  0.337675E+000  0.000000E+000  0.000000E+000 -0.561486E-002
  0.000000E+000  0.000000E+000  0.339679E+000  0.000000E+000  0.000000E+000 -0.561098E-002
  0.000000E+000  0.000000E+000  0.341683E+000  0.000000E+000  0.000000E+000 -0.560707E-002
  0.000000E+000  0.000000E+000  0.343687E+000  0.000000E+000  0.000000E+000 -0.560313E-002
  0.000000E+000  0.000000E+000  0.345691E+000  0.000000E+000  0.000000E+000 -0.559916E-002
  0.000000E+000  0.000000E+000  0.347695E+000  0.000000E+000  0.000000E+000 -0.559515E-002
  0.000000E+000  0.000000E+000  0.349699E+000  0.000000E+000  0.000000E+000 -0.559110E-002
  0.000000E+000  0.000000E+000  0.351703E+000  0.000000E+000  0.000000E+000 -0.558702E-002
  0.000000E+000  0.000000E+000  0.353707E+000  0.000000E+000  0.000000E+000 -0.558290E-002
  0.000000E+000  0.000000E+000  0.355711E+000  0.000000E+000  0.000000E+000 -0.557875E-002
  0.000000E+000  0.000000E+000  0.357715E+000  0.000000E+000  0.000000E+000 -0.557456E-002
  0.000000E+000  0.000000E+000  0.359719E+000  0.000000E+000  0.000000E+000 -0.557033E-002
  0.000000E+000  0.000000E+000  0.361723E+000  0.000000E+000  0.000000E+000 -0.556606E-002
  0.000000E+000  0.000000E+000  0.363727E+000  0.000000E+000  0.000000E+000 -0.556176E-002
  0.000000E+000  0.000000E+000  0.365731E+000  0.000000E+000  0.000000E+000 -0.555741E-002
  0.000000E+000  0.000000E+000  0.367735E+000  0.000000E+000  0.000000E+000 -0.555303E-002
  0.000000E+000  0.000000E+000  0.369739E+000  0.000000E+000  0.000000E+000 -0.554861E-002
  0.000000E+000  0.000000E+000  0.371743E+000  0.000000E+000  0.000000E+000 -0.554414E-002
  0.000000E+000  0.000000E+000  0.373747E+000  0.000000E+000  0.000000E+000 -0.553964E-002
  0.000000E+000  0.000000E+000  0.375752E+000  0.000000E+000  0.000000E+000 -0.553509E-002
  0.000000E+000  0.000000E+000  0.377756E+000  0.000000E+000  0.000000E+000 -0.553050E-002
  0.000000E+000  0.000000E+000  0.379760E+000  0.000000E+000  0.000000E+000 -0.552587E-002
  0.000000E+000  0.000000E+000  0.381764E+000  0.000000E+000  0.000000E+000 -0.552119E-002
  0.000000E+000  0.000000E+000  0.383768E+000  0.000000E+000  0.000000E+000 -0.551647E-002
  0.000000E+000  0.000000E+000  0.385772E+000  0.000000E+000  0.000000E+000 -0.551170E-002
  0.000000E+000  0.000000E+000  0.387776E+000  0.000000E+000  0.000000E+000 -0.550689E-002
  0.000000E+000  0.000000E+000  0.389780E+000  0.000000E+000  0.000000E+000 -0.550204E-002
  0.000000E+000  0.000000E+000  0.391784E+000  0.000000E+000  0.000000E+000 -0.549714E-002
  0.000000E+000  0.000000E+000  0.393788E+000  0.000000E+000  0.000000E+000 -0.549219E-002
  0.000000E+000  0.000000E+000  0.395792E+000  0.000000E+000  0.000000E+000 -0.548719E-002
  0.000000E+000  0.000000E+000  0.397796E+000  0.000000E+000  0.000000E+000 -0.548215E-002
  0.000000E+000  0.000000E+000  0.399800E+000  0.000000E+000  0.000000E+000 -0.547705E-002
  0.000000E+000  0.000000E+000  0.401804E+000  0.000000E+000  0.000000E+000 -0.547191E-002
  0.000000E+000  0.000000E+000  0.403808E+000  0.000000E+000  0.000000E+000 -0.546672E-002
  0.000000E+000  0.000000E+000  0.405812E+000  0.000000E+000  0.000000E+000 -0.546148E-002
  0.000000E+000  0.000000E+000  0.407816E+000  0.000000E+000  0.000000E+000 -0.545619E-002
  0.000000E+000  0.000000E+000  0.409820E+000  0.000000E+000  0.000000E+000 -0.545084E-002
  0.000000E+000  0.000000E+000  0.411824E+000  0.000000E+000  0.000000E+000 -0.544544E-002
  0.000000E+000  0.000000E+000  0.413828E+000  0.000000E+000  0.000000E+000 -0.544000E-002
  0.000000E+000  0.000000E+000  0.415832E+000  0.000000E+000  0.000000E+000 -0.543449E-002
  0.000000E+000  0.000000E+000  0.417836E+000  0.000000E+000  0.000000E+000 -0.542894E-002
  0.000000E+000  0.000000E+000  0.419840E+000  0.000000E+000  0.000000E+000 -0.542332E-002
  0.000000E+000  0.000000E+000  0.421844E+000  0.000000E+000  0.000000E+000 -0.541766E-002
  0.000000E+000  0.000000E+000  0.423848E+000  0.000000E+000  0.000000E+000 -0.541194E-002
  0.000000E+000  0.000000E+000  0.425852E+000  0.000000E+000  0.000000E+000 -0.540616E-002
  0.000000E+000  0.000000E+000  0.427856E+000  0.000000E+000  0.000000E+000 -0.540032E-002
  0.000000E+000  0.000000E+000  0.429860E+000  0.000000E+000  0.000000E+000 -0.539443E-002
  0.000000E+000  0.000000E+000  0.431864E+000  0.000000E+000  0.000000E+000 -0.538847E-002
  0.000000E+000  0.000000E+000  0.433868E+000  0.000000E+000  0.000000E+000 -0.538246E-002
  0.000000E+000  0.000000E+000  0.435872E+000  0.000000E+000  0.000000E+000 -0.537639E-002
  0.000000E+000  0.000000E+000  0.437876E+000  0.000000E+000  0.000000E+000 -0.537026E-002
  0.000000E+000  0.000000E+000  0.439880E+000  0.000000E+000  0.000000E+000 -0.536407E-002
  0.000000E+000  0.000000E+000  0.441884E+000  0.000000E+000  0.000000E+000 -0.535781E-002
  0.000000E+000  0.000000E+000  0.443888E+000  0.000000E+000  0.000000E+000 -0.535149E-002
  0.000000E+000  0.000000E+000  0.445892E+000  0.000000E+000  0.000000E+000 -0.534511E-002
  0.000000E+000  0.000000E+000  0.447896E+000  0.000000E+000  0.000000E+000 -0.533867E-002
  0.000000E+000  0.000000E+000  0.449900E+000  0.000000E+000  0.000000E+000 -0.533216E-002
  0.000000E+000  0.000000E+000  0.451904E+000  0.000000E+000  0.000000E+000 -0.532559E-002
  0.000000E+000  0.000000E+000  0.453908E+000  0.000000E+000  0.000000E+000 -0.531895E-002
  0.000000E+000  0.000000E+000  0.455912E+000  0.000000E+000  0.000000E+000 -0.531224E-002
  0.000000E+000  0.000000E+000  0.457916E+000  0.000000E+000  0.000000E+000 -0.530547E-002
  0.000000E+000  0.000000E+000  0.459920E+000  0.000000E+000  0.000000E+000 -0.529862E-002
  0.000000E+000  0.000000E+000  0.461924E+000  0.000000E+000  0.000000E+000 -0.529171E-002
  0.000000E+000  0.000000E+000  0.463928E+000  0.000000E+000  0.000000E+000 -0.528473E-002
  0.000000E+000  0.000000E+000  0.465932E+000  0.000000E+000  0.000000E+000 -0.527768E-002
  0.000000E+000  0.000000E+000  0.467936E+000  0.000000E+000  0.000000E+000 -0.527056E-002
  0.000000E+000  0.000000E+000  0.469940E+000  0.000000E+000  0.000000E+000 -0.526337E-002
  0.000000E+000  0.000000E+000  0.471944E+000  0.000000E+000  0.000000E+000 -0.525610E-002
  0.000000E+000  0.000000E+000  0.473948E+000  0.000000E+000  0.000000E+000 -0.524877E-002
  0.000000E+000  0.000000E+000  0.475952E+000  0.000000E+000  0.000000E+000 -0.524135E-002
  0.000000E+000  0.000000E+000  0.477956E+000  0.000000E+000  0.000000E+000 -0.523387E-002
  0.000000E+000  0.000000E+000  0.479960E+000  0.000000E+000  0.000000E+000 -0.522631E-002
  0.000000E+000  0.000000E+000  0.481964E+000  0.000000E+000  0.000000E+000 -0.521867E-002
  0.000000E+000  0.000000E+000  0.483968E+000  0.000000E+000  0.000000E+000 -0.521095E-002
  0.000000E+000  0.000000E+000  0.485972E+000  0.000000E+000  0.000000E+000 -0.520316E-002
  0.000000E+000  0.000000E+000  0.487976E+000  0.000000E+000  0.000000E+000 -0.519529E-002
  0.000000E+000  0.000000E+000  0.489980E+000  0.000000E+000  0.000000E+000 -0.518734E-002
  0.000000E+000  0.000000E+000  0.491984E+000  0.000000E+000  0.000000E+000 -0.517931E-002
  0.000000E+000  0.000000E+000  0.493988E+000  0.000000E+000  0.000000E+000 -0.517120E-002
  0.000000E+000  0.000000E+000  0.495992E+000  0.000000E+000  0.000000E+000 -0.516300E-002
  0.000000E+000  0.000000E+000  0.497996E+000  0.000000E+000  0.000000E+000 -0.515473E-002
  0.000000E+000  0.000000E+000  0.500000E+000  0.000000E+000  0.000000E+000 -0.514637E-002
  0.000000E+000  0.000000E+000  0.502004E+000  0.000000E+000  0.000000E+000 -0.513785E-002
  0.000000E+000  0.000000E+000  0.504008E+000  0.000000E+000  0.000000E+000 -0.512930E-002
  0.000000E+000  0.000000E+000  0.506012E+000  0.000000E+000  0.000000E+000 -0.512070E-002
  0.000000E+000  0.000000E+000  0.508016E+000  0.000000E+000  0.000000E+000 -0.511206E-002
  0.000000E+000  0.000000E+000  0.510020E+000  0.000000E+000  0.000000E+000 -0.510337E-002
  0.000000E+000  0.000000E+000  0.512024E+000  0.000000E+000  0.000000E+000 -0.509465E-002
  0.000000E+000  0.000000E+000  0.514028E+000  0.000000E+000  0.000000E+000 -0.508588E-002
  0.000000E+000  0.000000E+000  0.516032E+000  0.000000E+000  0.000000E+000 -0.507707E-002
  0.000000E+000  0.000000E+000  0.518036E+000  0.000000E+000  0.000000E+000 -0.506822E-002
  0.000000E+000  0.000000E+000  0.520040E+000  0.000000E+000  0.000000E+000 -0.505932E-002
  0.000000E+000  0.000000E+000  0.522044E+000  0.000000E+000  0.000000E+000 -0.505037E-002
  0.000000E+000  0.000000E+000  0.524048E+000  0.000000E+000  0.000000E+000 -0.504138E-002
  0.000000E+000  0.000000E+000  0.526052E+000  0.000000E+000  0.000000E+000 -0.503234E-002
  0.000000E+000  0.000000E+000  0.528056E+000  0.000000E+000  0.000000E+000 -0.502326E-002
  0.000000E+000  0.000000E+000  0.530060E+000  0.000000E+000  0.000000E+000 -0.501412E-002
  0.000000E+000  0.000000E+000  0.532064E+000  0.000000E+000  0.000000E+000 -0.500494E-002
  0.000000E+000  0.000000E+000  0.534068E+000  0.000000E+000  0.000000E+000 -0.499571E-002
  0.000000E+000  0.000000E+000  0.536072E+000  0.000000E+000  0.000000E+000 -0.498643E-002
  0.000000E+000  0.000000E+000  0.538076E+000  0.000000E+000  0.000000E+000 -0.497710E-002
  0.000000E+000  0.000000E+000  0.540080E+000  0.000000E+000  0.000000E+000 -0.496772E-002
  0.000000E+000  0.000000E+000  0.542084E+000  0.000000E+000  0.000000E+000 -0.495829E-002
  0.000000E+000  0.000000E+000  0.544088E+000  0.000000E+000  0.000000E+000 -0.494880E-002
  0.000000E+000  0.000000E+000  0.546092E+000  0.000000E+000  0.000000E+000 -0.493927E-002
  0.000000E+000  0.000000E+000  0.548096E+000  0.000000E+000  0.000000E+000 -0.492968E-002
  0.000000E+000  0.000000E+000  0.550100E+000  0.000000E+000  0.000000E+000 -0.492003E-002
  0.000000E+000  0.000000E+000  0.552104E+000  0.000000E+000  0.000000E+000 -0.491033E-002
  0.000000E+000  0.000000E+000  0.554108E+000  0.000000E+000  0.000000E+000 -0.490058E-002
  0.000000E+000  0.000000E+000  0.556112E+000  0.000000E+000  0.000000E+000 -0.489077E-002
  0.000000E+000  0.000000E+000  0.558116E+000  0.000000E+000  0.000000E+000 -0.488090E-002
  0.000000E+000  0.000000E+000  0.560120E+000  0.000000E+000  0.000000E+000 -0.487098E-002
  0.000000E+000  0.000000E+000  0.562124E+000  0.000000E+000  0.000000E+000 -0.486099E-002
  0.000000E+000  0.000000E+000  0.564128E+000  0.000000E+000  0.000000E+000 -0.485095E-002
  0.000000E+000  0.000000E+000  0.566132E+000  0.000000E+000  0.000000E+000 -0.484086E-002
  0.000000E+000  0.000000E+000  0.568136E+000  0.000000E+000  0.000000E+000 -0.483070E-002
  0.000000E+000  0.000000E+000  0.570140E+000  0.000000E+000  0.000000E+000 -0.482048E-002
  0.000000E+000  0.000000E+000  0.572144E+000  0.000000E+000  0.000000E+000 -0.481020E-002
  0.000000E+000  0.000000E+000  0.574148E+000  0.000000E+000  0.000000E+000 -0.479986E-002
  0.000000E+000  0.000000E+000  0.576152E+000  0.000000E+000  0.000000E+000 -0.478946E-002
  0.000000E+000  0.000000E+000  0.578156E+000  0.000000E+000  0.000000E+000 -0.477899E-002
  0.000000E+000  0.000000E+000  0.580160E+000  0.000000E+000  0.000000E+000 -0.476847E-002
  0.000000E+000  0.000000E+000  0.582164E+000  0.000000E+000  0.000000E+000 -0.475787E-002
  0.000000E+000  0.000000E+000  0.584168E+000  0.000000E+000  0.000000E+000 -0.474722E-002
  0.000000E+000  0.000000E+000  0.586172E+000  0.000000E+000  0.000000E+000 -0.473650E-002
  0.000000E+000  0.000000E+000  0.588176E+000  0.000000E+000  0.000000E+000 -0.472571E-002
  0.000000E+000  0.000000E+000  0.590180E+000  0.000000E+000  0.000000E+000 -0.471485E-002
  0.000000E+000  0.000000E+000  0.592184E+000  0.000000E+000  0.000000E+000 -0.470393E-002
  0.000000E+000  0.000000E+000  0.594188E+000  0.000000E+000  0.000000E+000 -0.469294E-002
  0.000000E+000  0.000000E+000  0.596192E+000  0.000000E+000  0.000000E+000 -0.468189E-002
  0.000000E+000  0.000000E+000  0.598196E+000  0.000000E+000  0.000000E+000 -0.467076E-002
  0.000000E+000  0.000000E+000  0.600200E+000  0.000000E+000  0.000000E+000 -0.465957E-002
  0.000000E+000  0.000000E+000  0.602204E+000  0.000000E+000  0.000000E+000 -0.464830E-002
  0.000000E+000  0.000000E+000  0.604208E+000  0.000000E+000  0.000000E+000 -0.463696E-002
  0.000000E+000  0.000000E+000  0.606212E+000  0.000000E+000  0.000000E+000 -0.462556E-002
  0.000000E+000  0.000000E+000  0.608216E+000  0.000000E+000  0.000000E+000 -0.461408E-002
  0.000000E+000  0.000000E+000  0.610220E+000  0.000000E+000  0.000000E+000 -0.460252E-002
  0.000000E+000  0.000000E+000  0.612224E+000  0.000000E+000  0.000000E+000 -0.459090E-002
  0.000000E+000  0.000000E+000  0.614228E+000  0.000000E+000  0.000000E+000 -0.457920E-002
  0.000000E+000  0.000000E+000  0.616232E+000  0.000000E+000  0.000000E+000 -0.456742E-002
  0.000000E+000  0.000000E+000  0.618236E+000  0.000000E+000  0.000000E+000 -0.455557E-002
  0.000000E+000  0.000000E+000  0.620240E+000  0.000000E+000  0.000000E+000 -0.454364E-002
  0.000000E+000  0.000000E+000  0.622244E+000  0.000000E+000  0.000000E+000 -0.453164E-002
  0.000000E+000  0.000000E+000  0.624248E+000  0.000000E+000  0.000000E+000 -0.451956E-002
  0.000000E+000  0.000000E+000  0.626253E+000  0.000000E+000  0.000000E+000 -0.450740E-002
  0.000000E+000  0.000000E+000  0.628257E+000  0.000000E+000  0.000000E+000 -0.449516E-002
  0.000000E+000  0.000000E+000  0.630261E+000  0.000000E+000  0.000000E+000 -0.448284E-002
  0.000000E+000  0.000000E+000  0.632265E+000  0.000000E+000  0.000000E+000 -0.447044E-002
  0.000000E+000  0.000000E+000  0.634269E+000  0.000000E+000  0.000000E+000 -0.445796E-002
  0.000000E+000  0.000000E+000  0.636273E+000  0.000000E+000  0.000000E+000 -0.444540E-002
  0.000000E+000  0.000000E+000  0.638277E+000  0.000000E+000  0.000000E+000 -0.443276E-002
  0.000000E+000  0.000000E+000  0.640281E+000  0.000000E+000  0.000000E+000 -0.442004E-002
  0.000000E+000  0.000000E+000  0.642285E+000  0.000000E+000  0.000000E+000 -0.440723E-002
  0.000000E+000  0.000000E+000  0.644289E+000  0.000000E+000  0.000000E+000 -0.439434E-002
  0.000000E+000  0.000000E+000  0.646293E+000  0.000000E+000  0.000000E+000 -0.438136E-002
  0.000000E+000  0.000000E+000  0.648297E+000  0.000000E+000  0.000000E+000 -0.436830E-002
  0.000000E+000  0.000000E+000  0.650301E+000  0.000000E+000  0.000000E+000 -0.435515E-002
  0.000000E+000  0.000000E+000  0.652305E+000  0.000000E+000  0.000000E+000 -0.434191E-002
  0.000000E+000  0.000000E+000  0.654309E+000  0.000000E+000  0.000000E+000 -0.432859E-002