title = "dataset transp-updrld"
variables = "x", "y", "z", "h_w", "p_w", "s_w", "theta_a", "s_a", "theta_g", "q_root"
zone t = "Flow variables, initial condition" i =  500, j =    1, k =    1,  f=point
  0.000000E+000  0.000000E+000  0.000000E+000 -0.100000E+002 -0.100000E+002  0.381837E+000  0.206192E+000  0.618163E+000  0.333808E+000  0.000000E+000
  0.000000E+000  0.000000E+000  0.200401E-002 -0.433040E+002 -0.433074E+002  0.252922E+000  0.136578E+000  0.747078E+000  0.403422E+000  0.000000E+000
  0.000000E+000  0.000000E+000  0.400802E-002 -0.289043E+002 -0.289110E+002  0.278946E+000  0.150631E+000  0.721054E+000  0.389369E+000  0.000000E+000
  0.000000E+000  0.000000E+000  0.601202E-002 -0.226213E+002 -0.226314E+002  0.297769E+000  0.160796E+000  0.702231E+000  0.379204E+000  0.000000E+000
  0.000000E+000  0.000000E+000  0.801603E-002 -0.190837E+002 -0.190970E+002  0.312376E+000  0.168683E+000  0.687624E+000  0.371317E+000  0.000000E+000
  0.000000E+000  0.000000E+000  0.100200E-001 -0.167875E+002 -0.168042E+002  0.324296E+000  0.175120E+000  0.675704E+000  0.364880E+000  0.000000E+000
  0.000000E+000  0.000000E+000  0.120240E-001 -0.151587E+002 -0.151787E+002  0.334376E+000  0.180563E+000  0.665624E+000  0.359437E+000  0.000000E+000
  0.000000E+000  0.000000E+000  0.140281E-001 -0.139319E+002 -0.139553E+002  0.343122E+000  0.185286E+000  0.656878E+000  0.354714E+000  0.000000E+000
  0.000000E+000  0.000000E+000  0.160321E-001 -0.129674E+002 -0.129941E+002  0.350859E+000  0.189464E+000  0.649141E+000  0.350536E+000  0.000000E+000
  0.000000E+000  0.000000E+000  0.180361E-001 -0.121844E+002 -0.122145E+002  0.357806E+000  0.193215E+000  0.642194E+000  0.346785E+000  0.000000E+000
  0.000000E+000  0.000000E+000  0.200401E-001 -0.115328E+002 -0.115662E+002  0.364116E+000  0.196622E+000  0.635884E+000  0.343378E+000  0.000000E+000
  0.000000E+000  0.000000E+000  0.220441E-001 -0.109796E+002 -0.110163E+002  0.369902E+000  0.199747E+000  0.630098E+000  0.340253E+000  0.000000E+000
  0.000000E+000  0.000000E+000  0.240481E-001 -0.105025E+002 -0.105426E+002  0.375250E+000  0.202635E+000  0.624750E+000  0.337365E+000  0.000000E+000
  0.000000E+000  0.000000E+000  0.260521E-001 -0.100854E+002 -0.101289E+002  0.380225E+000  0.205321E+000  0.619775E+000  0.334679E+000  0.000000E+000
  0.000000E+000  0.000000E+000  0.280561E-001 -0.971686E+001 -0.976360E+001  0.384878E+000  0.207834E+000  0.615122E+000  0.332166E+000  0.000000E+000
  0.000000E+000  0.000000E+000  0.300601E-001 -0.938796E+001 -0.943805E+001  0.389252E+000  0.210196E+000  0.610748E+000  0.329804E+000  0.000000E+000
  0.000000E+000  0.000000E+000  0.320641E-001 -0.909209E+001 -0.914551E+001  0.393379E+000  0.212425E+000  0.606621E+000  0.327575E+000  0.000000E+000
  0.000000E+000  0.000000E+000  0.340681E-001 -0.882401E+001 -0.888077E+001  0.397288E+000  0.214536E+000  0.602712E+000  0.325464E+000  0.000000E+000
  0.000000E+000  0.000000E+000  0.360721E-001 -0.857960E+001 -0.863970E+001  0.401002E+000  0.216541E+000  0.598998E+000  0.323459E+000  0.000000E+000
  0.000000E+000  0.000000E+000  0.380762E-001 -0.835554E+001 -0.841898E+001  0.404540E+000  0.218452E+000  0.595460E+000  0.321548E+000  0.000000E+000
  0.000000E+000  0.000000E+000  0.400802E-001 -0.814912E+001 -0.821590E+001  0.407920E+000  0.220277E+000  0.592080E+000  0.319723E+000  0.000000E+000
  0.000000E+000  0.000000E+000  0.420842E-001 -0.795812E+001 -0.802824E+001  0.411155E+000  0.222023E+000  0.588845E+000  0.317977E+000  0.000000E+000
  0.000000E+000  0.000000E+000  0.440882E-001 -0.778067E+001 -0.785413E+001  0.414258E+000  0.223699E+000  0.585742E+000  0.316301E+000  0.000000E+000
  0.000000E+000  0.000000E+000  0.460922E-001 -0.761522E+001 -0.769202E+001  0.417240E+000  0.225309E+000  0.582760E+000  0.314691E+000  0.000000E+000
  0.000000E+000  0.000000E+000  0.480962E-001 -0.746047E+001 -0.754060E+001  0.420110E+000  0.226859E+000  0.579890E+000  0.313141E+000  0.000000E+000
  0.000000E+000  0.000000E+000  0.501002E-001 -0.731527E+001 -0.739874E+001  0.422877E+000  0.228354E+000  0.577123E+000  0.311646E+000  0.000000E+000
  0.000000E+000  0.000000E+000  0.521042E-001 -0.717868E+001 -0.726549E+001  0.425549E+000  0.229796E+000  0.574451E+000  0.310204E+000  0.000000E+000
  0.000000E+000  0.000000E+000  0.541082E-001 -0.704985E+001 -0.714000E+001  0.428131E+000  0.231191E+000  0.571869E+000  0.308809E+000  0.000000E+000
  0.000000E+000  0.000000E+000  0.561122E-001 -0.692806E+001 -0.702155E+001  0.430630E+000  0.232540E+000  0.569370E+000  0.307460E+000  0.000000E+000
  0.000000E+000  0.000000E+000  0.581162E-001 -0.681268E+001 -0.690951E+001  0.433052E+000  0.233848E+000  0.566948E+000  0.306152E+000  0.000000E+000
  0.000000E+000  0.000000E+000  0.601202E-001 -0.670316E+001 -0.680332E+001  0.435400E+000  0.235116E+000  0.564600E+000  0.304884E+000  0.000000E+000
  0.000000E+000  0.000000E+000  0.621242E-001 -0.659900E+001 -0.670250E+001  0.437680E+000  0.236347E+000  0.562320E+000  0.303653E+000  0.000000E+000
  0.000000E+000  0.000000E+000  0.641283E-001 -0.649976E+001 -0.660661E+001  0.439896E+000  0.237544E+000  0.560104E+000  0.302456E+000  0.000000E+000
  0.000000E+000  0.000000E+000  0.661323E-001 -0.640507E+001 -0.651525E+001  0.442050E+000  0.238707E+000  0.557950E+000  0.301293E+000  0.000000E+000
  0.000000E+000  0.000000E+000  0.681363E-001 -0.631457E+001 -0.642809E+001  0.444147E+000  0.239839E+000  0.555853E+000  0.300161E+000  0.000000E+000
  0.000000E+000  0.000000E+000  0.701403E-001 -0.622796E+001 -0.634482E+001  0.446189E+000  0.240942E+000  0.553811E+000  0.299058E+000  0.000000E+000
  0.000000E+000  0.000000E+000  0.721443E-001 -0.614496E+001 -0.626516E+001  0.448179E+000  0.242017E+000  0.551821E+000  0.297983E+000  0.000000E+000
  0.000000E+000  0.000000E+000  0.741483E-001 -0.606531E+001 -0.618885E+001  0.450120E+000  0.243065E+000  0.549880E+000  0.296935E+000  0.000000E+000
  0.000000E+000  0.000000E+000  0.761523E-001 -0.598879E+001 -0.611567E+001  0.452014E+000  0.244088E+000  0.547986E+000  0.295912E+000  0.000000E+000
  0.000000E+000  0.000000E+000  0.781563E-001 -0.591520E+001 -0.604542E+001  0.453863E+000  0.245086E+000  0.546137E+000  0.294914E+000  0.000000E+000
  0.000000E+000  0.000000E+000  0.801603E-001 -0.584434E+001 -0.597790E+001  0.455670E+000  0.246062E+000  0.544330E+000  0.293938E+000  0.000000E+000
  0.000000E+000  0.000000E+000  0.821643E-001 -0.577605E+001 -0.591294E+001  0.457436E+000  0.247016E+000  0.542564E+000  0.292984E+000  0.000000E+000
  0.000000E+000  0.000000E+000  0.841683E-001 -0.571016E+001 -0.585040E+001  0.459163E+000  0.247948E+000  0.540837E+000  0.292052E+000  0.000000E+000
  0.000000E+000  0.000000E+000  0.861723E-001 -0.564654E+001 -0.579012E+001  0.460853E+000  0.248861E+000  0.539147E+000  0.291139E+000  0.000000E+000
  0.000000E+000  0.000000E+000  0.881764E-001 -0.558506E+001 -0.573197E+001  0.462507E+000  0.249754E+000  0.537493E+000  0.290246E+000  0.000000E+000
  0.000000E+000  0.000000E+000  0.901804E-001 -0.552558E+001 -0.567583E+001  0.464127E+000  0.250629E+000  0.535873E+000  0.289371E+000  0.000000E+000
  0.000000E+000  0.000000E+000  0.921844E-001 -0.546801E+001 -0.562160E+001  0.465714E+000  0.251485E+000  0.534286E+000  0.288515E+000  0.000000E+000
  0.000000E+000  0.000000E+000  0.941884E-001 -0.541223E+001 -0.556916E+001  0.467269E+000  0.252325E+000  0.532731E+000  0.287675E+000  0.000000E+000
  0.000000E+000  0.000000E+000  0.961924E-001 -0.535815E+001 -0.551842E+001  0.468793E+000  0.253148E+000  0.531207E+000  0.286852E+000  0.000000E+000
  0.000000E+000  0.000000E+000  0.981964E-001 -0.530569E+001 -0.546930E+001  0.470288E+000  0.253956E+000  0.529712E+000  0.286044E+000  0.000000E+000
  0.000000E+000  0.000000E+000  0.100200E+000 -0.525476E+001 -0.542171E+001  0.471755E+000  0.254748E+000  0.528245E+000  0.285252E+000  0.000000E+000
  0.000000E+000  0.000000E+000  0.102204E+000 -0.520529E+001 -0.537557E+001  0.473195E+000  0.255525E+000  0.526805E+000  0.284475E+000  0.000000E+000
  0.000000E+000  0.000000E+000  0.104208E+000 -0.515720E+001 -0.533082E+001  0.474608E+000  0.256288E+000  0.525392E+000  0.283712E+000  0.000000E+000
  0.000000E+000  0.000000E+000  0.106212E+000 -0.511043E+001 -0.528739E+001  0.475996E+000  0.257038E+000  0.524004E+000  0.282962E+000  0.000000E+000
  0.000000E+000  0.000000E+000  0.108216E+000 -0.506491E+001 -0.524521E+001  0.477359E+000  0.257774E+000  0.522641E+000  0.282226E+000  0.000000E+000
  0.000000E+000  0.000000E+000  0.110220E+000 -0.502059E+001 -0.520423E+001  0.478698E+000  0.258497E+000  0.521302E+000  0.281503E+000  0.000000E+000
  0.000000E+000  0.000000E+000  0.112224E+000 -0.497742E+001 -0.516439E+001  0.480014E+000  0.259208E+000  0.519986E+000  0.280792E+000  0.000000E+000
  0.000000E+000  0.000000E+000  0.114228E+000 -0.493534E+001 -0.512565E+001  0.481308E+000  0.259906E+000  0.518692E+000  0.280094E+000  0.000000E+000
  0.000000E+000  0.000000E+000  0.116232E+000 -0.489430E+001 -0.508796E+001  0.482580E+000  0.260593E+000  0.517420E+000  0.279407E+000  0.000000E+000
  0.000000E+000  0.000000E+000  0.118236E+000 -0.485427E+001 -0.505126E+001  0.483831E+000  0.261269E+000  0.516169E+000  0.278731E+000  0.000000E+000
  0.000000E+000  0.000000E+000  0.120240E+000 -0.481519E+001 -0.501552E+001  0.485062E+000  0.261934E+000  0.514938E+000  0.278066E+000  0.000000E+000
  0.000000E+000  0.000000E+000  0.122244E+000 -0.477703E+001 -0.498071E+001  0.486273E+000  0.262588E+000  0.513727E+000  0.277412E+000  0.000000E+000
  0.000000E+000  0.000000E+000  0.124248E+000 -0.473976E+001 -0.494677E+001  0.487465E+000  0.263231E+000  0.512535E+000  0.276769E+000  0.000000E+000
  0.000000E+000  0.000000E+000  0.126253E+000 -0.470333E+001 -0.491368E+001  0.488638E+000  0.263865E+000  0.511362E+000  0.276135E+000  0.000000E+000
  0.000000E+000  0.000000E+000  0.128257E+000 -0.466771E+001 -0.488140E+001  0.489793E+000  0.264488E+000  0.510207E+000  0.275512E+000  0.000000E+000
  0.000000E+000  0.000000E+000  0.130261E+000 -0.463288E+001 -0.484990E+001  0.490931E+000  0.265103E+000  0.509069E+000  0.274897E+000  0.000000E+000
  0.000000E+000  0.000000E+000  0.132265E+000 -0.459879E+001 -0.481916E+001  0.492051E+000  0.265708E+000  0.507949E+000  0.274292E+000  0.000000E+000
  0.000000E+000  0.000000E+000  0.134269E+000 -0.456543E+001 -0.478914E+001  0.493155E+000  0.266304E+000  0.506845E+000  0.273696E+000  0.000000E+000
  0.000000E+000  0.000000E+000  0.136273E+000 -0.453277E+001 -0.475981E+001  0.494242E+000  0.266891E+000  0.505758E+000  0.273109E+000  0.000000E+000
  0.000000E+000  0.000000E+000  0.138277E+000 -0.450078E+001 -0.473116E+001  0.495313E+000  0.267469E+000  0.504687E+000  0.272531E+000  0.000000E+000
  0.000000E+000  0.000000E+000  0.140281E+000 -0.446943E+001 -0.470316E+001  0.496369E+000  0.268039E+000  0.503631E+000  0.271961E+000  0.000000E+000
  0.000000E+000  0.000000E+000  0.142285E+000 -0.443871E+001 -0.467577E+001  0.497410E+000  0.268601E+000  0.502590E+000  0.271399E+000  0.000000E+000
  0.000000E+000  0.000000E+000  0.144289E+000 -0.440860E+001 -0.464900E+001  0.498436E+000  0.269156E+000  0.501564E+000  0.270844E+000  0.000000E+000
  0.000000E+000  0.000000E+000  0.146293E+000 -0.437906E+001 -0.462280E+001  0.499448E+000  0.269702E+000  0.500552E+000  0.270298E+000  0.000000E+000
  0.000000E+000  0.000000E+000  0.148297E+000 -0.435008E+001 -0.459716E+001  0.500446E+000  0.270241E+000  0.499554E+000  0.269759E+000  0.000000E+000
  0.000000E+000  0.000000E+000  0.150301E+000 -0.432165E+001 -0.457207E+001  0.501430E+000  0.270772E+000  0.498570E+000  0.269228E+000  0.000000E+000
  0.000000E+000  0.000000E+000  0.152305E+000 -0.429375E+001 -0.454751E+001  0.502401E+000  0.271296E+000  0.497599E+000  0.268704E+000  0.000000E+000
  0.000000E+000  0.000000E+000  0.154309E+000 -0.426635E+001 -0.452345E+001  0.503358E+000  0.271813E+000  0.496642E+000  0.268187E+000  0.000000E+000
  0.000000E+000  0.000000E+000  0.156313E+000 -0.423945E+001 -0.449988E+001  0.504303E+000  0.272324E+000  0.495697E+000  0.267676E+000  0.000000E+000
  0.000000E+000  0.000000E+000  0.158317E+000 -0.421302E+001 -0.447679E+001  0.505236E+000  0.272827E+000  0.494764E+000  0.267173E+000  0.000000E+000
  0.000000E+000  0.000000E+000  0.160321E+000 -0.418705E+001 -0.445416E+001  0.506156E+000  0.273324E+000  0.493844E+000  0.266676E+000  0.000000E+000
  0.000000E+000  0.000000E+000  0.162325E+000 -0.416153E+001 -0.443198E+001  0.507064E+000  0.273815E+000  0.492936E+000  0.266185E+000  0.000000E+000
  0.000000E+000  0.000000E+000  0.164329E+000 -0.413645E+001 -0.441024E+001  0.507961E+000  0.274299E+000  0.492039E+000  0.265701E+000  0.000000E+000
  0.000000E+000  0.000000E+000  0.166333E+000 -0.411178E+001 -0.438891E+001  0.508846E+000  0.274777E+000  0.491154E+000  0.265223E+000  0.000000E+000
  0.000000E+000  0.000000E+000  0.168337E+000 -0.408752E+001 -0.436799E+001  0.509720E+000  0.275249E+000  0.490280E+000  0.264751E+000  0.000000E+000
  0.000000E+000  0.000000E+000  0.170341E+000 -0.406366E+001 -0.434747E+001  0.510583E+000  0.275715E+000  0.489417E+000  0.264285E+000  0.000000E+000
  0.000000E+000  0.000000E+000  0.172345E+000 -0.404018E+001 -0.432733E+001  0.511435E+000  0.276175E+000  0.488565E+000  0.263825E+000  0.000000E+000
  0.000000E+000  0.000000E+000  0.174349E+000 -0.401708E+001 -0.430757E+001  0.512277E+000  0.276629E+000  0.487723E+000  0.263371E+000  0.000000E+000
  0.000000E+000  0.000000E+000  0.176353E+000 -0.399434E+001 -0.428816E+001  0.513108E+000  0.277078E+000  0.486892E+000  0.262922E+000  0.000000E+000
  0.000000E+000  0.000000E+000  0.178357E+000 -0.397195E+001 -0.426912E+001  0.513929E+000  0.277522E+000  0.486071E+000  0.262478E+000  0.000000E+000
  0.000000E+000  0.000000E+000  0.180361E+000 -0.394991E+001 -0.425041E+001  0.514741E+000  0.277960E+000  0.485259E+000  0.262040E+000  0.000000E+000
  0.000000E+000  0.000000E+000  0.182365E+000 -0.392820E+001 -0.423204E+001  0.515542E+000  0.278393E+000  0.484458E+000  0.261607E+000  0.000000E+000
  0.000000E+000  0.000000E+000  0.184369E+000 -0.390681E+001 -0.421399E+001  0.516334E+000  0.278821E+000  0.483666E+000  0.261179E+000  0.000000E+000
  0.000000E+000  0.000000E+000  0.186373E+000 -0.388574E+001 -0.419626E+001  0.517117E+000  0.279243E+000  0.482883E+000  0.260757E+000  0.000000E+000
  0.000000E+000  0.000000E+000  0.188377E+000 -0.386498E+001 -0.417884E+001  0.517890E+000  0.279661E+000  0.482110E+000  0.260339E+000  0.000000E+000
  0.000000E+000  0.000000E+000  0.190381E+000 -0.384452E+001 -0.416171E+001  0.518655E+000  0.280074E+000  0.481345E+000  0.259926E+000  0.000000E+000
  0.000000E+000  0.000000E+000  0.192385E+000 -0.382434E+001 -0.414488E+001  0.519411E+000  0.280482E+000  0.480589E+000  0.259518E+000  0.000000E+000
  0.000000E+000  0.000000E+000  0.194389E+000 -0.380446E+001 -0.412833E+001  0.520157E+000  0.280885E+000  0.479843E+000  0.259115E+000  0.000000E+000
  0.000000E+000  0.000000E+000  0.196393E+000 -0.378485E+001 -0.411206E+001  0.520896E+000  0.281284E+000  0.479104E+000  0.258716E+000  0.000000E+000
  0.000000E+000  0.000000E+000  0.198397E+000 -0.376551E+001 -0.409606E+001  0.521626E+000  0.281678E+000  0.478374E+000  0.258322E+000  0.000000E+000
  0.000000E+000  0.000000E+000  0.200401E+000 -0.374643E+001 -0.408032E+001  0.522347E+000  0.282068E+000  0.477653E+000  0.257932E+000  0.000000E+000
  0.000000E+000  0.000000E+000  0.202405E+000 -0.372761E+001 -0.406484E+001  0.523061E+000  0.282453E+000  0.476939E+000  0.257547E+000  0.000000E+000
  0.000000E+000  0.000000E+000  0.204409E+000 -0.370904E+001 -0.404961E+001  0.523767E+000  0.282834E+000  0.476233E+000  0.257166E+000  0.000000E+000
  0.000000E+000  0.000000E+000  0.206413E+000 -0.369072E+001 -0.403462E+001  0.524464E+000  0.283211E+000  0.475536E+000  0.256789E+000  0.000000E+000
  0.000000E+000  0.000000E+000  0.208417E+000 -0.367263E+001 -0.401988E+001  0.525154E+000  0.283583E+000  0.474846E+000  0.256417E+000  0.000000E+000
  0.000000E+000  0.000000E+000  0.210421E+000 -0.365478E+001 -0.400536E+001  0.525837E+000  0.283952E+000  0.474163E+000  0.256048E+000  0.000000E+000
  0.000000E+000  0.000000E+000  0.212425E+000 -0.363715E+001 -0.399108E+001  0.526512E+000  0.284316E+000  0.473488E+000  0.255684E+000  0.000000E+000
  0.000000E+000  0.000000E+000  0.214429E+000 -0.361975E+001 -0.397701E+001  0.527179E+000  0.284677E+000  0.472821E+000  0.255323E+000  0.000000E+000
  0.000000E+000  0.000000E+000  0.216433E+000 -0.360257E+001 -0.396317E+001  0.527840E+000  0.285034E+000  0.472160E+000  0.254966E+000  0.000000E+000
  0.000000E+000  0.000000E+000  0.218437E+000 -0.358559E+001 -0.394953E+001  0.528493E+000  0.285386E+000  0.471507E+000  0.254614E+000  0.000000E+000
  0.000000E+000  0.000000E+000  0.220441E+000 -0.356883E+001 -0.393611E+001  0.529140E+000  0.285735E+000  0.470860E+000  0.254265E+000  0.000000E+000
  0.000000E+000  0.000000E+000  0.222445E+000 -0.355226E+001 -0.392288E+001  0.529779E+000  0.286081E+000  0.470221E+000  0.253919E+000  0.000000E+000
  0.000000E+000  0.000000E+000  0.224449E+000 -0.353590E+001 -0.390986E+001  0.530412E+000  0.286422E+000  0.469588E+000  0.253578E+000  0.000000E+000
  0.000000E+000  0.000000E+000  0.226453E+000 -0.351973E+001 -0.389703E+001  0.531038E+000  0.286760E+000  0.468962E+000  0.253240E+000  0.000000E+000
  0.000000E+000  0.000000E+000  0.228457E+000 -0.350375E+001 -0.388439E+001  0.531657E+000  0.287095E+000  0.468343E+000  0.252905E+000  0.000000E+000
  0.000000E+000  0.000000E+000  0.230461E+000 -0.348796E+001 -0.387193E+001  0.532270E+000  0.287426E+000  0.467730E+000  0.252574E+000  0.000000E+000
  0.000000E+000  0.000000E+000  0.232465E+000 -0.347235E+001 -0.385966E+001  0.532877E+000  0.287753E+000  0.467123E+000  0.252247E+000  0.000000E+000
  0.000000E+000  0.000000E+000  0.234469E+000 -0.345691E+001 -0.384756E+001  0.533477E+000  0.288078E+000  0.466523E+000  0.251922E+000  0.000000E+000
  0.000000E+000  0.000000E+000  0.236473E+000 -0.344165E+001 -0.383564E+001  0.534071E+000  0.288398E+000  0.465929E+000  0.251602E+000  0.000000E+000
  0.000000E+000  0.000000E+000  0.238477E+000 -0.342656E+001 -0.382389E+001  0.534659E+000  0.288716E+000  0.465341E+000  0.251284E+000  0.000000E+000
  0.000000E+000  0.000000E+000  0.240481E+000 -0.341164E+001 -0.381231E+001  0.535241E+000  0.289030E+000  0.464759E+000  0.250970E+000  0.000000E+000
  0.000000E+000  0.000000E+000  0.242485E+000 -0.339688E+001 -0.380089E+001  0.535817E+000  0.289341E+000  0.464183E+000  0.250659E+000  0.000000E+000
  0.000000E+000  0.000000E+000  0.244489E+000 -0.338228E+001 -0.378963E+001  0.536388E+000  0.289649E+000  0.463612E+000  0.250351E+000  0.000000E+000
  0.000000E+000  0.000000E+000  0.246493E+000 -0.336784E+001 -0.377853E+001  0.536952E+000  0.289954E+000  0.463048E+000  0.250046E+000  0.000000E+000
  0.000000E+000  0.000000E+000  0.248497E+000 -0.335356E+001 -0.376758E+001  0.537511E+000  0.290256E+000  0.462489E+000  0.249744E+000  0.000000E+000
  0.000000E+000  0.000000E+000  0.250501E+000 -0.333942E+001 -0.375678E+001  0.538064E+000  0.290555E+000  0.461936E+000  0.249445E+000  0.000000E+000
  0.000000E+000  0.000000E+000  0.252505E+000 -0.332543E+001 -0.374614E+001  0.538612E+000  0.290850E+000  0.461388E+000  0.249150E+000  0.000000E+000
  0.000000E+000  0.000000E+000  0.254509E+000 -0.331159E+001 -0.373563E+001  0.539154E+000  0.291143E+000  0.460846E+000  0.248857E+000  0.000000E+000
  0.000000E+000  0.000000E+000  0.256513E+000 -0.329789E+001 -0.372527E+001  0.539691E+000  0.291433E+000  0.460309E+000  0.248567E+000  0.000000E+000
  0.000000E+000  0.000000E+000  0.258517E+000 -0.328433E+001 -0.371505E+001  0.540222E+000  0.291720E+000  0.459778E+000  0.248280E+000  0.000000E+000
  0.000000E+000  0.000000E+000  0.260521E+000 -0.327091E+001 -0.370497E+001  0.540749E+000  0.292004E+000  0.459251E+000  0.247996E+000  0.000000E+000
  0.000000E+000  0.000000E+000  0.262525E+000 -0.325762E+001 -0.369502E+001  0.541270E+000  0.292286E+000  0.458730E+000  0.247714E+000  0.000000E+000
  0.000000E+000  0.000000E+000  0.264529E+000 -0.324446E+001 -0.368520E+001  0.541786E+000  0.292564E+000  0.458214E+000  0.247436E+000  0.000000E+000
  0.000000E+000  0.000000E+000  0.266533E+000 -0.323144E+001 -0.367551E+001  0.542297E+000  0.292840E+000  0.457703E+000  0.247160E+000  0.000000E+000
  0.000000E+000  0.000000E+000  0.268537E+000 -0.321854E+001 -0.366595E+001  0.542803E+000  0.293113E+000  0.457197E+000  0.246887E+000  0.000000E+000
  0.000000E+000  0.000000E+000  0.270541E+000 -0.320576E+001 -0.365651E+001  0.543304E+000  0.293384E+000  0.456696E+000  0.246616E+000  0.000000E+000
  0.000000E+000  0.000000E+000  0.272545E+000 -0.319311E+001 -0.364720E+001  0.543800E+000  0.293652E+000  0.456200E+000  0.246348E+000  0.000000E+000
  0.000000E+000  0.000000E+000  0.274549E+000 -0.318058E+001 -0.363801E+001  0.544292E+000  0.293917E+000  0.455708E+000  0.246083E+000  0.000000E+000
  0.000000E+000  0.000000E+000  0.276553E+000 -0.316816E+001 -0.362893E+001  0.544778E+000  0.294180E+000  0.455222E+000  0.245820E+000  0.000000E+000
  0.000000E+000  0.000000E+000  0.278557E+000 -0.315586E+001 -0.361997E+001  0.545261E+000  0.294441E+000  0.454739E+000  0.245559E+000  0.000000E+000
  0.000000E+000  0.000000E+000  0.280561E+000 -0.314368E+001 -0.361113E+001  0.545738E+000  0.294699E+000  0.454262E+000  0.245301E+000  0.000000E+000
  0.000000E+000  0.000000E+000  0.282565E+000 -0.313161E+001 -0.360239E+001  0.546211E+000  0.294954E+000  0.453789E+000  0.245046E+000  0.000000E+000
  0.000000E+000  0.000000E+000  0.284569E+000 -0.311965E+001 -0.359377E+001  0.546680E+000  0.295207E+000  0.453320E+000  0.244793E+000  0.000000E+000
  0.000000E+000  0.000000E+000  0.286573E+000 -0.310779E+001 -0.358526E+001  0.547144E+000  0.295458E+000  0.452856E+000  0.244542E+000  0.000000E+000
  0.000000E+000  0.000000E+000  0.288577E+000 -0.309605E+001 -0.357685E+001  0.547603E+000  0.295706E+000  0.452397E+000  0.244294E+000  0.000000E+000
  0.000000E+000  0.000000E+000  0.290581E+000 -0.308441E+001 -0.356855E+001  0.548058E+000  0.295952E+000  0.451942E+000  0.244048E+000  0.000000E+000
  0.000000E+000  0.000000E+000  0.292585E+000 -0.307287E+001 -0.356034E+001  0.548510E+000  0.296195E+000  0.451490E+000  0.243805E+000  0.000000E+000
  0.000000E+000  0.000000E+000  0.294589E+000 -0.306143E+001 -0.355225E+001  0.548956E+000  0.296436E+000  0.451044E+000  0.243564E+000  0.000000E+000
  0.000000E+000  0.000000E+000  0.296593E+000 -0.305009E+001 -0.354425E+001  0.549399E+000  0.296675E+000  0.450601E+000  0.243325E+000  0.000000E+000
  0.000000E+000  0.000000E+000  0.298597E+000 -0.303885E+001 -0.353634E+001  0.549837E+000  0.296912E+000  0.450163E+000  0.243088E+000  0.000000E+000
  0.000000E+000  0.000000E+000  0.300601E+000 -0.302770E+001 -0.352854E+001  0.550272E+000  0.297147E+000  0.449728E+000  0.242853E+000  0.000000E+000
  0.000000E+000  0.000000E+000  0.302605E+000 -0.301665E+001 -0.352083E+001  0.550702E+000  0.297379E+000  0.449298E+000  0.242621E+000  0.000000E+000
  0.000000E+000  0.000000E+000  0.304609E+000 -0.300570E+001 -0.351321E+001  0.551128E+000  0.297609E+000  0.448872E+000  0.242391E+000  0.000000E+000
  0.000000E+000  0.000000E+000  0.306613E+000 -0.299483E+001 -0.350568E+001  0.551551E+000  0.297837E+000  0.448449E+000  0.242163E+000  0.000000E+000
  0.000000E+000  0.000000E+000  0.308617E+000 -0.298406E+001 -0.349825E+001  0.551969E+000  0.298063E+000  0.448031E+000  0.241937E+000  0.000000E+000
  0.000000E+000  0.000000E+000  0.310621E+000 -0.297337E+001 -0.349090E+001  0.552384E+000  0.298287E+000  0.447616E+000  0.241713E+000  0.000000E+000
  0.000000E+000  0.000000E+000  0.312625E+000 -0.296277E+001 -0.348364E+001  0.552795E+000  0.298509E+000  0.447205E+000  0.241491E+000  0.000000E+000
  0.000000E+000  0.000000E+000  0.314629E+000 -0.295226E+001 -0.347647E+001  0.553202E+000  0.298729E+000  0.446798E+000  0.241271E+000  0.000000E+000
  0.000000E+000  0.000000E+000  0.316633E+000 -0.294183E+001 -0.346938E+001  0.553605E+000  0.298947E+000  0.446395E+000  0.241053E+000  0.000000E+000
  0.000000E+000  0.000000E+000  0.318637E+000 -0.293149E+001 -0.346237E+001  0.554005E+000  0.299163E+000  0.445995E+000  0.240837E+000  0.000000E+000
  0.000000E+000  0.000000E+000  0.320641E+000 -0.292123E+001 -0.345545E+001  0.554401E+000  0.299376E+000  0.445599E+000  0.240624E+000  0.000000E+000
  0.000000E+000  0.000000E+000  0.322645E+000 -0.291104E+001 -0.344861E+001  0.554793E+000  0.299588E+000  0.445207E+000  0.240412E+000  0.000000E+000
  0.000000E+000  0.000000E+000  0.324649E+000 -0.290094E+001 -0.344184E+001  0.555182E+000  0.299798E+000  0.444818E+000  0.240202E+000  0.000000E+000
  0.000000E+000  0.000000E+000  0.326653E+000 -0.289092E+001 -0.343516E+001  0.555567E+000  0.300006E+000  0.444433E+000  0.239994E+000  0.000000E+000
  0.000000E+000  0.000000E+000  0.328657E+000 -0.288097E+001 -0.342855E+001  0.555949E+000  0.300212E+000  0.444051E+000  0.239788E+000  0.000000E+000
  0.000000E+000  0.000000E+000  0.330661E+000 -0.287110E+001 -0.342202E+001  0.556327E+000  0.300417E+000  0.443673E+000  0.239583E+000  0.000000E+000
  0.000000E+000  0.000000E+000  0.332665E+000 -0.286131E+001 -0.341556E+001  0.556702E+000  0.300619E+000  0.443298E+000  0.239381E+000  0.000000E+000
  0.000000E+000  0.000000E+000  0.334669E+000 -0.285159E+001 -0.340918E+001  0.557073E+000  0.300820E+000  0.442927E+000  0.239180E+000  0.000000E+000
  0.000000E+000  0.000000E+000  0.336673E+000 -0.284194E+001 -0.340287E+001  0.557441E+000  0.301018E+000  0.442559E+000  0.238982E+000  0.000000E+000
  0.000000E+000  0.000000E+000  0.338677E+000 -0.283236E+001 -0.339663E+001  0.557806E+000  0.301215E+000  0.442194E+000  0.238785E+000  0.000000E+000
  0.000000E+000  0.000000E+000  0.340681E+000 -0.282286E+001 -0.339047E+001  0.558167E+000  0.301410E+000  0.441833E+000  0.238590E+000  0.000000E+000
  0.000000E+000  0.000000E+000  0.342685E+000 -0.281342E+001 -0.338437E+001  0.558526E+000  0.301604E+000  0.441474E+000  0.238396E+000  0.000000E+000
  0.000000E+000  0.000000E+000  0.344689E+000 -0.280405E+001 -0.337834E+001  0.558881E+000  0.301795E+000  0.441119E+000  0.238205E+000  0.000000E+000
  0.000000E+000  0.000000E+000  0.346693E+000 -0.279475E+001 -0.337238E+001  0.559232E+000  0.301985E+000  0.440768E+000  0.238015E+000  0.000000E+000
  0.000000E+000  0.000000E+000  0.348697E+000 -0.278552E+001 -0.336649E+001  0.559581E+000  0.302174E+000  0.440419E+000  0.237826E+000  0.000000E+000
  0.000000E+000  0.000000E+000  0.350701E+000 -0.277636E+001 -0.336066E+001  0.559926E+000  0.302360E+000  0.440074E+000  0.237640E+000  0.000000E+000
  0.000000E+000  0.000000E+000  0.352705E+000 -0.276725E+001 -0.335490E+001  0.560269E+000  0.302545E+000  0.439731E+000  0.237455E+000  0.000000E+000
  0.000000E+000  0.000000E+000  0.354709E+000 -0.275822E+001 -0.334920E+001  0.560608E+000  0.302728E+000  0.439392E+000  0.237272E+000  0.000000E+000
  0.000000E+000  0.000000E+000  0.356713E+000 -0.274924E+001 -0.334357E+001  0.560944E+000  0.302910E+000  0.439056E+000  0.237090E+000  0.000000E+000
  0.000000E+000  0.000000E+000  0.358717E+000 -0.274033E+001 -0.333799E+001  0.561278E+000  0.303090E+000  0.438722E+000  0.236910E+000  0.000000E+000
  0.000000E+000  0.000000E+000  0.360721E+000 -0.273148E+001 -0.333248E+001  0.561608E+000  0.303268E+000  0.438392E+000  0.236732E+000  0.000000E+000
  0.000000E+000  0.000000E+000  0.362725E+000 -0.272269E+001 -0.332703E+001  0.561935E+000  0.303445E+000  0.438065E+000  0.236555E+000  0.000000E+000
  0.000000E+000  0.000000E+000  0.364729E+000 -0.271396E+001 -0.332164E+001  0.562260E+000  0.303620E+000  0.437740E+000  0.236380E+000  0.000000E+000
  0.000000E+000  0.000000E+000  0.366733E+000 -0.270529E+001 -0.331631E+001  0.562581E+000  0.303794E+000  0.437419E+000  0.236206E+000  0.000000E+000
  0.000000E+000  0.000000E+000  0.368737E+000 -0.269668E+001 -0.331104E+001  0.562900E+000  0.303966E+000  0.437100E+000  0.236034E+000  0.000000E+000
  0.000000E+000  0.000000E+000  0.370741E+000 -0.268813E+001 -0.330582E+001  0.563216E+000  0.304136E+000  0.436784E+000  0.235864E+000  0.000000E+000
  0.000000E+000  0.000000E+000  0.372745E+000 -0.267963E+001 -0.330066E+001  0.563529E+000  0.304305E+000  0.436471E+000  0.235695E+000  0.000000E+000
  0.000000E+000  0.000000E+000  0.374749E+000 -0.267119E+001 -0.329556E+001  0.563839E+000  0.304473E+000  0.436161E+000  0.235527E+000  0.000000E+000
  0.000000E+000  0.000000E+000  0.376754E+000 -0.266280E+001 -0.329052E+001  0.564146E+000  0.304639E+000  0.435854E+000  0.235361E+000  0.000000E+000
  0.000000E+000  0.000000E+000  0.378758E+000 -0.265447E+001 -0.328552E+001  0.564451E+000  0.304803E+000  0.435549E+000  0.235197E+000  0.000000E+000
  0.000000E+000  0.000000E+000  0.380762E+000 -0.264619E+001 -0.328058E+001  0.564753E+000  0.304966E+000  0.435247E+000  0.235034E+000  0.000000E+000
  0.000000E+000  0.000000E+000  0.382766E+000 -0.263797E+001 -0.327570E+001  0.565052E+000  0.305128E+000  0.434948E+000  0.234872E+000  0.000000E+000
  0.000000E+000  0.000000E+000  0.384770E+000 -0.262980E+001 -0.327087E+001  0.565349E+000  0.305288E+000  0.434651E+000  0.234712E+000  0.000000E+000
  0.000000E+000  0.000000E+000  0.386774E+000 -0.262168E+001 -0.326609E+001  0.565643E+000  0.305447E+000  0.434357E+000  0.234553E+000  0.000000E+000
  0.000000E+000  0.000000E+000  0.388778E+000 -0.261361E+001 -0.326136E+001  0.565934E+000  0.305604E+000  0.434066E+000  0.234396E+000  0.000000E+000
  0.000000E+000  0.000000E+000  0.390782E+000 -0.260559E+001 -0.325668E+001  0.566223E+000  0.305760E+000  0.433777E+000  0.234240E+000  0.000000E+000
  0.000000E+000  0.000000E+000  0.392786E+000 -0.259763E+001 -0.325205E+001  0.566509E+000  0.305915E+000  0.433491E+000  0.234085E+000  0.000000E+000