title = "dataset transp-updrld"
variables = "time", "water mass", "water filled volume", "gas filled volume" 
zone t = "system mass -  variably saturated flow", f=point
  0.0000E+00  1.6716E+02  1.8421E-01  3.1079E-01
  1.0000E-10  1.6716E+02  1.8421E-01  3.1079E-01
  6.0000E-10  1.6716E+02  1.8421E-01  3.1079E-01
  3.1000E-09  1.6716E+02  1.8421E-01  3.1079E-01
  1.5600E-08  1.6716E+02  1.8421E-01  3.1079E-01
  7.8100E-08  1.6716E+02  1.8421E-01  3.1079E-01
  3.9060E-07  1.6716E+02  1.8421E-01  3.1079E-01
  1.9531E-06  1.6716E+02  1.8421E-01  3.1079E-01
  9.7656E-06  1.6716E+02  1.8421E-01  3.1079E-01
  4.8828E-05  1.6716E+02  1.8421E-01  3.1079E-01
  2.4414E-04  1.6717E+02  1.8421E-01  3.1079E-01
  1.2207E-03  1.6717E+02  1.8422E-01  3.1078E-01
  6.1035E-03  1.6722E+02  1.8426E-01  3.1074E-01
  3.0518E-02  1.6743E+02  1.8447E-01  3.1053E-01
  1.5259E-01  1.6848E+02  1.8553E-01  3.0947E-01
  5.8163E-01  1.7219E+02  1.8923E-01  3.0577E-01
  1.0000E+00  1.7580E+02  1.9286E-01  3.0214E-01
  2.0000E+00  1.7120E+02  1.8732E-01  3.0768E-01
  2.5975E+00  1.7726E+02  1.9325E-01  3.0175E-01
  3.0000E+00  1.8152E+02  1.9748E-01  2.9752E-01
  4.0000E+00  1.8035E+02  1.9641E-01  2.9859E-01
  5.0000E+00  1.7932E+02  1.9547E-01  2.9953E-01
  6.0000E+00  1.7834E+02  1.9456E-01  3.0044E-01
  7.0000E+00  1.7738E+02  1.9362E-01  3.0138E-01
  8.0000E+00  1.7642E+02  1.9266E-01  3.0234E-01
  9.0000E+00  1.7545E+02  1.9167E-01  3.0333E-01
  1.0000E+01  1.7381E+02  1.8998E-01  3.0502E-01
  1.0978E+01  1.7241E+02  1.8851E-01  3.0649E-01
  1.1000E+01  1.7238E+02  1.8848E-01  3.0652E-01
  1.1110E+01  1.7223E+02  1.8833E-01  3.0667E-01
  1.1660E+01  1.7152E+02  1.8758E-01  3.0742E-01
  1.2000E+01  1.7109E+02  1.8712E-01  3.0788E-01
  1.3000E+01  1.6969E+02  1.8564E-01  3.0936E-01
  1.4000E+01  1.6840E+02  1.8426E-01  3.1074E-01
  1.5000E+01  1.6713E+02  1.8290E-01  3.1210E-01
  1.6000E+01  1.6592E+02  1.8161E-01  3.1339E-01
  1.7000E+01  1.6471E+02  1.8031E-01  3.1469E-01
  1.8000E+01  1.6358E+02  1.7909E-01  3.1591E-01
  1.9000E+01  1.6248E+02  1.7790E-01  3.1710E-01
  2.0000E+01  1.6143E+02  1.7677E-01  3.1823E-01
  2.1000E+01  1.6196E+02  1.7722E-01  3.1778E-01
  2.2000E+01  1.6099E+02  1.7618E-01  3.1882E-01
  2.3000E+01  1.5993E+02  1.7505E-01  3.1995E-01
  2.4000E+01  1.6322E+02  1.7829E-01  3.1671E-01
  2.5000E+01  1.6215E+02  1.7719E-01  3.1781E-01
  2.5500E+01  1.6583E+02  1.8086E-01  3.1414E-01
  2.5972E+01  1.6928E+02  1.8432E-01  3.1068E-01
  2.6000E+01  1.6948E+02  1.8453E-01  3.1047E-01
  2.6138E+01  1.7193E+02  1.8698E-01  3.0802E-01
  2.6523E+01  1.7869E+02  1.9381E-01  3.0119E-01
  2.7000E+01  1.8708E+02  2.0244E-01  2.9256E-01
  2.8000E+01  2.0500E+02  2.2168E-01  2.7332E-01
  2.9000E+01  2.1175E+02  2.2968E-01  2.6532E-01
  3.0000E+01  2.2829E+02  2.4779E-01  2.4721E-01
  3.1000E+01  2.2762E+02  2.4783E-01  2.4717E-01
  3.2000E+01  2.2537E+02  2.4572E-01  2.4928E-01
  3.3000E+01  2.1929E+02  2.3941E-01  2.5559E-01
  3.4000E+01  2.1748E+02  2.3737E-01  2.5763E-01
  3.5000E+01  2.1339E+02  2.3301E-01  2.6199E-01
  3.6000E+01  2.0842E+02  2.2772E-01  2.6728E-01
  3.7000E+01  2.0337E+02  2.2233E-01  2.7267E-01
  3.8000E+01  1.9840E+02  2.1701E-01  2.7799E-01
  3.9000E+01  1.9400E+02  2.1227E-01  2.8273E-01
  4.0000E+01  1.9007E+02  2.0803E-01  2.8697E-01
  4.1000E+01  1.8647E+02  2.0414E-01  2.9086E-01
  4.2000E+01  1.8330E+02  2.0070E-01  2.9430E-01
  4.3000E+01  1.8044E+02  1.9760E-01  2.9740E-01
  4.4000E+01  1.7796E+02  1.9489E-01  3.0011E-01
  4.5000E+01  1.7564E+02  1.9237E-01  3.0263E-01
  4.6000E+01  1.7359E+02  1.9013E-01  3.0487E-01
  4.7000E+01  1.7213E+02  1.8850E-01  3.0650E-01
  4.7250E+01  1.7457E+02  1.9090E-01  3.0410E-01
  4.7476E+01  1.7678E+02  1.9307E-01  3.0193E-01
  4.8000E+01  1.8192E+02  1.9819E-01  2.9681E-01
  4.9000E+01  1.8766E+02  2.0411E-01  2.9089E-01
  5.0000E+01  1.8731E+02  2.0398E-01  2.9102E-01
  5.1000E+01  1.9176E+02  2.0868E-01  2.8632E-01
  5.2000E+01  1.8978E+02  2.0687E-01  2.8813E-01
  5.3000E+01  1.9408E+02  2.1136E-01  2.8364E-01
  5.4000E+01  1.9178E+02  2.0917E-01  2.8583E-01
  5.5000E+01  1.8912E+02  2.0651E-01  2.8849E-01
  5.6000E+01  1.8626E+02  2.0356E-01  2.9144E-01
  5.7000E+01  1.8336E+02  2.0053E-01  2.9447E-01
  5.8000E+01  1.8026E+02  1.9727E-01  2.9773E-01
  5.9000E+01  1.7747E+02  1.9431E-01  3.0069E-01
  6.0000E+01  1.7710E+02  1.9377E-01  3.0123E-01
  6.1000E+01  1.8103E+02  1.9762E-01  2.9738E-01
  6.1845E+01  1.7891E+02  1.9544E-01  2.9956E-01
  6.2000E+01  1.7853E+02  1.9505E-01  2.9995E-01
  6.2775E+01  1.7642E+02  1.9289E-01  3.0211E-01
  6.3000E+01  1.7583E+02  1.9228E-01  3.0272E-01
  6.3250E+01  1.8217E+02  1.9860E-01  2.9640E-01
  6.3380E+01  1.8547E+02  2.0190E-01  2.9310E-01
  6.3691E+01  1.9334E+02  2.0983E-01  2.8517E-01
  6.4000E+01  2.0118E+02  2.1787E-01  2.7713E-01
  6.4756E+01  2.0118E+02  2.1844E-01  2.7656E-01
  6.5000E+01  2.0118E+02  2.1861E-01  2.7639E-01
  6.6000E+01  2.3566E+02  2.5539E-01  2.3961E-01
  6.6671E+01  2.3285E+02  2.5336E-01  2.4164E-01
  6.7000E+01  2.3119E+02  2.5190E-01  2.4310E-01
  6.8000E+01  2.2449E+02  2.4504E-01  2.4996E-01
  6.9000E+01  2.2359E+02  2.4395E-01  2.5105E-01
  7.0000E+01  2.1721E+02  2.3723E-01  2.5777E-01
  7.1000E+01  2.1119E+02  2.3080E-01  2.6420E-01
  7.2000E+01  2.0633E+02  2.2554E-01  2.6946E-01
  7.3000E+01  2.0155E+02  2.2039E-01  2.7461E-01
  7.4000E+01  2.0265E+02  2.2127E-01  2.7373E-01
  7.5000E+01  1.9862E+02  2.1701E-01  2.7799E-01
  7.6000E+01  1.9489E+02  2.1306E-01  2.8194E-01
  7.7000E+01  1.9157E+02  2.0949E-01  2.8551E-01
  7.8000E+01  1.8853E+02  2.0622E-01  2.8878E-01
  7.9000E+01  1.8661E+02  2.0409E-01  2.9091E-01
  8.0000E+01  1.8402E+02  2.0129E-01  2.9371E-01
  8.1000E+01  1.8126E+02  1.9834E-01  2.9666E-01
  8.2000E+01  1.7857E+02  1.9546E-01  2.9954E-01
  8.3000E+01  1.7582E+02  1.9253E-01  3.0247E-01
  8.4000E+01  1.7398E+02  1.9051E-01  3.0449E-01
  8.5000E+01  1.7159E+02  1.8795E-01  3.0705E-01
  8.6000E+01  1.6921E+02  1.8541E-01  3.0959E-01
  8.7000E+01  1.6742E+02  1.8347E-01  3.1153E-01
  8.8000E+01  1.6567E+02  1.8157E-01  3.1343E-01
  8.9000E+01  1.6402E+02  1.7978E-01  3.1522E-01
  9.0000E+01  1.6248E+02  1.7810E-01  3.1690E-01
  9.1000E+01  1.6093E+02  1.7644E-01  3.1856E-01
  9.2000E+01  1.5938E+02  1.7476E-01  3.2024E-01
  9.3000E+01  1.5793E+02  1.7320E-01  3.2180E-01
  9.4000E+01  1.5653E+02  1.7169E-01  3.2331E-01
  9.5000E+01  1.5516E+02  1.7021E-01  3.2479E-01
  9.6000E+01  1.5384E+02  1.6880E-01  3.2620E-01
  9.6031E+01  1.5405E+02  1.6900E-01  3.2600E-01
  9.6087E+01  1.5440E+02  1.6934E-01  3.2566E-01
  9.6274E+01  1.5551E+02  1.7044E-01  3.2456E-01
  9.6801E+01  1.5848E+02  1.7335E-01  3.2165E-01
  9.7000E+01  1.5957E+02  1.7443E-01  3.2057E-01
  9.7995E+01  1.6289E+02  1.7771E-01  3.1729E-01
  9.8000E+01  1.6290E+02  1.7773E-01  3.1727E-01
  9.8023E+01  1.6290E+02  1.7773E-01  3.1727E-01
  9.8139E+01  1.6289E+02  1.7771E-01  3.1729E-01
  9.8716E+01  1.6286E+02  1.7768E-01  3.1732E-01
  9.9000E+01  1.6285E+02  1.7767E-01  3.1733E-01
  1.0000E+02  1.6251E+02  1.7736E-01  3.1764E-01
  1.0100E+02  1.6111E+02  1.7597E-01  3.1903E-01
  1.0200E+02  1.5977E+02  1.7464E-01  3.2036E-01
  1.0300E+02  1.5834E+02  1.7319E-01  3.2181E-01
  1.0400E+02  1.5658E+02  1.7140E-01  3.2360E-01
  1.0500E+02  1.5488E+02  1.6966E-01  3.2534E-01
  1.0600E+02  1.5358E+02  1.6831E-01  3.2669E-01
  1.0602E+02  1.5376E+02  1.6849E-01  3.2651E-01
  1.0605E+02  1.5413E+02  1.6886E-01  3.2614E-01
  1.0614E+02  1.5512E+02  1.6984E-01  3.2516E-01
  1.0634E+02  1.5737E+02  1.7209E-01  3.2291E-01
  1.0670E+02  1.6121E+02  1.7591E-01  3.1909E-01
  1.0700E+02  1.6445E+02  1.7914E-01  3.1586E-01
  1.0781E+02  1.6239E+02  1.7709E-01  3.1791E-01
  1.0800E+02  1.6194E+02  1.7665E-01  3.1835E-01
  1.0893E+02  1.6001E+02  1.7475E-01  3.2025E-01
  1.0900E+02  1.5986E+02  1.7460E-01  3.2040E-01
  1.0937E+02  1.5925E+02  1.7399E-01  3.2101E-01
  1.1000E+02  1.5825E+02  1.7300E-01  3.2200E-01
  1.1100E+02  1.5709E+02  1.7183E-01  3.2317E-01
  1.1200E+02  1.5540E+02  1.7013E-01  3.2487E-01
  1.1300E+02  1.5380E+02  1.6849E-01  3.2651E-01
  1.1400E+02  1.5294E+02  1.6758E-01  3.2742E-01
  1.1500E+02  1.5218E+02  1.6677E-01  3.2823E-01
  1.1600E+02  1.5139E+02  1.6593E-01  3.2907E-01
  1.1700E+02  1.4977E+02  1.6425E-01  3.3075E-01
  1.1800E+02  1.4877E+02  1.6319E-01  3.3181E-01
  1.1900E+02  1.4787E+02  1.6223E-01  3.3277E-01
  1.2000E+02  1.4697E+02  1.6126E-01  3.3374E-01
  1.2100E+02  1.4573E+02  1.5997E-01  3.3503E-01
  1.2200E+02  1.4452E+02  1.5869E-01  3.3631E-01
  1.2300E+02  1.4402E+02  1.5813E-01  3.3687E-01
  1.2400E+02  1.4325E+02  1.5729E-01  3.3771E-01
  1.2500E+02  1.4242E+02  1.5640E-01  3.3860E-01
  1.2600E+02  1.4164E+02  1.5556E-01  3.3944E-01
  1.2700E+02  1.4089E+02  1.5475E-01  3.4025E-01
  1.2800E+02  1.4004E+02  1.5385E-01  3.4115E-01
  1.2900E+02  1.3941E+02  1.5316E-01  3.4184E-01
  1.3000E+02  1.3874E+02  1.5244E-01  3.4256E-01
  1.3100E+02  1.3793E+02  1.5158E-01  3.4342E-01
  1.3200E+02  1.3718E+02  1.5078E-01  3.4422E-01
  1.3300E+02  1.3666E+02  1.5020E-01  3.4480E-01
  1.3306E+02  1.3678E+02  1.5031E-01  3.4469E-01
  1.3322E+02  1.3705E+02  1.5058E-01  3.4442E-01
  1.3352E+02  1.3756E+02  1.5107E-01  3.4393E-01
  1.3400E+02  1.3834E+02  1.5183E-01  3.4317E-01
  1.3425E+02  1.4027E+02  1.5375E-01  3.4125E-01
  1.3448E+02  1.4201E+02  1.5548E-01  3.3952E-01
  1.3500E+02  1.4593E+02  1.5937E-01  3.3563E-01
  1.3597E+02  1.4522E+02  1.5863E-01  3.3637E-01
  1.3600E+02  1.4520E+02  1.5862E-01  3.3638E-01
  1.3613E+02  1.4505E+02  1.5846E-01  3.3654E-01
  1.3677E+02  1.4436E+02  1.5775E-01  3.3725E-01
  1.3700E+02  1.4411E+02  1.5750E-01  3.3750E-01
  1.3800E+02  1.4305E+02  1.5643E-01  3.3857E-01
  1.3812E+02  1.4698E+02  1.6036E-01  3.3464E-01
  1.3821E+02  1.4967E+02  1.6305E-01  3.3195E-01
  1.3840E+02  1.5544E+02  1.6882E-01  3.2618E-01
  1.3867E+02  1.6387E+02  1.7725E-01  3.1775E-01
  1.3900E+02  1.7405E+02  1.8752E-01  3.0748E-01
  1.3948E+02  1.7307E+02  1.8681E-01  3.0819E-01
  1.4000E+02  1.7206E+02  1.8610E-01  3.0890E-01
  1.4100E+02  1.7100E+02  1.8548E-01  3.0952E-01
  1.4200E+02  1.6948E+02  1.8425E-01  3.1075E-01
  1.4300E+02  1.6771E+02  1.8266E-01  3.1234E-01
  1.4400E+02  1.6593E+02  1.8101E-01  3.1399E-01
  1.4500E+02  1.6418E+02  1.7932E-01  3.1568E-01
  1.4600E+02  1.6241E+02  1.7757E-01  3.1743E-01
  1.4650E+02  1.6347E+02  1.7863E-01  3.1637E-01
  1.4700E+02  1.6447E+02  1.7963E-01  3.1537E-01
  1.4800E+02  1.6277E+02  1.7792E-01  3.1708E-01
  1.4900E+02  1.6166E+02  1.7679E-01  3.1821E-01
  1.5000E+02  1.6061E+02  1.7570E-01  3.1930E-01
