title = "dataset transp-updrld"
variables = "time", "absolute mass balance error", "relative mass balance error", "absolute cumulative mass balance error", "relative cumulative mass balance error" 
zone t = "mass balance error -  variably saturated flow", f=point
  1.0000E-10  5.0612E-12  3.0277E-12  5.0612E-12  3.0277E-12
  6.0000E-10  3.0618E-14  1.8316E-14  5.0918E-12  3.0460E-12
  3.1000E-09  1.5223E-13  9.1065E-14  5.2441E-12  3.1371E-12
  1.5600E-08  5.3922E-16  3.2257E-16  5.2446E-12  3.1374E-12
  7.8100E-08 -1.6108E-15 -9.6360E-16  5.2430E-12  3.1364E-12
  3.9060E-07 -3.0152E-16 -1.8038E-16  5.2427E-12  3.1363E-12
  1.9531E-06  6.4584E-16  3.8635E-16  5.2433E-12  3.1367E-12
  9.7656E-06 -2.5196E-14 -1.5073E-14  5.2181E-12  3.1216E-12
  4.8828E-05  1.0715E-15  6.4101E-16  5.2192E-12  3.1222E-12
  2.4414E-04  2.6766E-17  1.6012E-17  5.2192E-12  3.1222E-12
  1.2207E-03 -2.6192E-14 -1.5667E-14  5.1930E-12  3.1064E-12
  6.1035E-03  8.7244E-16  5.2175E-16  5.1939E-12  3.1061E-12
  3.0518E-02 -4.0943E-12 -2.4454E-12  1.0997E-12  6.5680E-13
  1.5259E-01 -3.9695E-09 -2.3560E-09 -3.9684E-09 -2.3554E-09
  5.8163E-01  6.3949E-08  3.7139E-08  5.9980E-08  3.4834E-08
  1.0000E+00  3.0618E-08  1.7416E-08  9.0598E-08  5.1534E-08
  2.0000E+00  1.2986E+00  7.5854E-01  1.2986E+00  7.5854E-01
  2.5975E+00 -8.1805E-08 -4.6148E-08  1.2986E+00  7.3258E-01
  3.0000E+00  2.5977E-08  1.4311E-08  1.2986E+00  7.1541E-01
  4.0000E+00 -5.2563E-07 -2.9144E-07  1.2986E+00  7.2003E-01
  5.0000E+00 -1.3675E-07 -7.6264E-08  1.2986E+00  7.2419E-01
  6.0000E+00 -2.1291E-07 -1.1938E-07  1.2986E+00  7.2815E-01
  7.0000E+00 -7.2776E-07 -4.1027E-07  1.2986E+00  7.3209E-01
  8.0000E+00 -6.6405E-07 -3.7640E-07  1.2986E+00  7.3608E-01
  9.0000E+00 -4.4651E-07 -2.5449E-07  1.2986E+00  7.4014E-01
  1.0000E+01  6.7498E-01  3.8834E-01  1.9736E+00  1.1355E+00
  1.0978E+01  4.6432E-01  2.6932E-01  2.4379E+00  1.4140E+00
  1.1000E+01  1.0440E-02  6.0564E-03  2.4483E+00  1.4203E+00
  1.1110E+01  3.7019E-02  2.1493E-02  2.4854E+00  1.4430E+00
  1.1660E+01  1.8947E-01  1.1047E-01  2.6748E+00  1.5595E+00
  1.2000E+01  1.1601E-01  6.7806E-02  2.7908E+00  1.6313E+00
  1.3000E+01  4.7426E-01  2.7948E-01  3.2651E+00  1.9242E+00
  1.4000E+01  3.9652E-01  2.3546E-01  3.6616E+00  2.1744E+00
  1.5000E+01  4.0248E-01  2.4081E-01  4.0641E+00  2.4317E+00
  1.6000E+01  3.7779E-01  2.2769E-01  4.4419E+00  2.6771E+00
  1.7000E+01  4.1150E-01  2.4982E-01  4.8534E+00  2.9465E+00
  1.8000E+01  3.6604E-01  2.2376E-01  5.2194E+00  3.1907E+00
  1.9000E+01  3.6760E-01  2.2624E-01  5.5870E+00  3.4386E+00
  2.0000E+01  3.4204E-01  2.1188E-01  5.9291E+00  3.6727E+00
  2.1000E+01  3.2103E-01  1.9821E-01  6.2501E+00  3.8590E+00
  2.2000E+01  3.2008E-01  1.9882E-01  6.5702E+00  4.0810E+00
  2.3000E+01  4.4597E-01  2.7886E-01  7.0161E+00  4.3871E+00
  2.4000E+01  6.2240E-01  3.8132E-01  7.6385E+00  4.6799E+00
  2.5000E+01  4.8780E-01  3.0083E-01  8.1263E+00  5.0115E+00
  2.5500E+01  2.3864E-01  1.4391E-01  8.3650E+00  5.0444E+00
  2.5972E+01  2.4532E-01  1.4492E-01  8.6103E+00  5.0864E+00
  2.6000E+01  1.4444E-02  8.5223E-03  8.6247E+00  5.0889E+00
  2.6138E+01  9.9862E-02  5.8084E-02  8.7246E+00  5.0746E+00
  2.6523E+01  2.9235E-01  1.6361E-01  9.0170E+00  5.0462E+00
  2.7000E+01  3.7410E-01  1.9997E-01  9.3911E+00  5.0198E+00
  2.8000E+01  3.8646E-01  1.8852E-01  9.7775E+00  4.7696E+00
  2.9000E+01  3.2194E-01  1.5204E-01  1.0099E+01  4.7695E+00
  3.0000E+01  2.0853E-01  9.1341E-02  1.0308E+01  4.5152E+00
  3.1000E+01  2.7157E-01  1.1931E-01  1.0580E+01  4.6479E+00
  3.2000E+01  6.7623E-01  3.0006E-01  1.1256E+01  4.9944E+00
  3.3000E+01  9.8903E-01  4.5102E-01  1.2245E+01  5.5839E+00
  3.4000E+01  1.3581E+00  6.2445E-01  1.3603E+01  6.2547E+00
  3.5000E+01  6.2765E-01  2.9413E-01  1.4231E+01  6.6687E+00
  3.6000E+01  9.2651E-01  4.4454E-01  1.5157E+01  7.2724E+00
  3.7000E+01  1.4300E+00  7.0316E-01  1.6587E+01  8.1562E+00
  3.8000E+01  1.7503E+00  8.8221E-01  1.8337E+01  9.2426E+00
  3.9000E+01  1.5508E+00  7.9937E-01  1.9888E+01  1.0252E+01
  4.0000E+01  1.4002E+00  7.3669E-01  2.1288E+01  1.1200E+01
  4.1000E+01  1.3478E+00  7.2283E-01  2.2636E+01  1.2139E+01
  4.2000E+01  1.1579E+00  6.3169E-01  2.3794E+01  1.2981E+01
  4.3000E+01  1.0391E+00  5.7589E-01  2.4833E+01  1.3762E+01
  4.4000E+01  8.3987E-01  4.7194E-01  2.5673E+01  1.4426E+01
  4.5000E+01  8.2769E-01  4.7124E-01  2.6501E+01  1.5088E+01
  4.6000E+01  6.8453E-01  3.9434E-01  2.7185E+01  1.5661E+01
  4.7000E+01  5.2084E-01  3.0258E-01  2.7706E+01  1.6096E+01
  4.7250E+01  2.5326E-02  1.4508E-02  2.7731E+01  1.5885E+01
  4.7476E+01  2.5025E-02  1.4156E-02  2.7756E+01  1.5701E+01
  4.8000E+01  6.2163E-02  3.4171E-02  2.7819E+01  1.5292E+01
  4.9000E+01  9.4986E-01  5.0616E-01  2.8769E+01  1.5330E+01
  5.0000E+01  1.0324E+00  5.5119E-01  2.9801E+01  1.5910E+01
  5.1000E+01  6.2733E-01  3.2714E-01  3.0428E+01  1.5868E+01
  5.2000E+01  1.1408E+00  6.0112E-01  3.1569E+01  1.6635E+01
  5.3000E+01  1.0438E+00  5.3786E-01  3.2613E+01  1.6804E+01
  5.4000E+01  7.8728E-01  4.1052E-01  3.3400E+01  1.7416E+01
  5.5000E+01  1.0498E+00  5.5510E-01  3.4450E+01  1.8216E+01
  5.6000E+01  1.2316E+00  6.6123E-01  3.5682E+01  1.9157E+01
  5.7000E+01  1.2766E+00  6.9624E-01  3.6958E+01  2.0156E+01
  5.8000E+01  1.5428E+00  8.5587E-01  3.8501E+01  2.1359E+01
  5.9000E+01  1.3059E+00  7.3586E-01  3.9807E+01  2.2430E+01
  6.0000E+01  1.3127E+00  7.4123E-01  4.1120E+01  2.3219E+01
  6.1000E+01  5.1123E-01  2.8241E-01  4.1631E+01  2.2997E+01
  6.1845E+01  1.0591E+00  5.9196E-01  4.2690E+01  2.3861E+01
  6.2000E+01  1.8829E-01  1.0547E-01  4.2878E+01  2.4018E+01
  6.2775E+01  1.1821E+00  6.7005E-01  4.4060E+01  2.4975E+01
  6.3000E+01  3.2446E-01  1.8454E-01  4.4385E+01  2.5243E+01
  6.3250E+01  8.6990E-02  4.7753E-02  4.4472E+01  2.4412E+01
  6.3380E+01  4.8039E-02  2.5901E-02  4.4520E+01  2.4003E+01
  6.3691E+01  1.2008E-01  6.2109E-02  4.4640E+01  2.3089E+01
  6.4000E+01  1.2233E-01  6.0806E-02  4.4762E+01  2.2250E+01
  6.4756E+01  7.5206E-01  3.7382E-01  4.5514E+01  2.2623E+01
  6.5000E+01  2.3897E-01  1.1879E-01  4.5753E+01  2.2742E+01
  6.6000E+01  2.7081E-01  1.1491E-01  4.6024E+01  1.9530E+01
  6.6671E+01  8.6451E-01  3.7128E-01  4.6889E+01  2.0137E+01
  6.7000E+01  4.1634E-01  1.8009E-01  4.7305E+01  2.0461E+01
  6.8000E+01  1.0767E+00  4.7963E-01  4.8382E+01  2.1552E+01
  6.9000E+01  1.1925E+00  5.3335E-01  4.9574E+01  2.2172E+01
  7.0000E+01  1.2334E+00  5.6783E-01  5.0808E+01  2.3391E+01
  7.1000E+01  1.4275E+00  6.7594E-01  5.2235E+01  2.4734E+01
  7.2000E+01  8.3194E-01  4.0322E-01  5.3067E+01  2.5720E+01
  7.3000E+01  1.2391E+00  6.1479E-01  5.4306E+01  2.6944E+01
  7.4000E+01  9.9866E-01  4.9280E-01  5.5305E+01  2.7290E+01
  7.5000E+01  1.2366E+00  6.2260E-01  5.6541E+01  2.8468E+01
  7.6000E+01  1.1005E+00  5.6467E-01  5.7642E+01  2.9577E+01
  7.7000E+01  9.2098E-01  4.8076E-01  5.8563E+01  3.0570E+01
  7.8000E+01  8.4724E-01  4.4940E-01  5.9410E+01  3.1513E+01
  7.9000E+01  6.2172E-01  3.3316E-01  6.0032E+01  3.2169E+01
  8.0000E+01  7.5175E-01  4.0852E-01  6.0784E+01  3.3031E+01
  8.1000E+01  1.0625E+00  5.8620E-01  6.1846E+01  3.4120E+01
  8.2000E+01  1.1290E+00  6.3225E-01  6.2975E+01  3.5267E+01
  8.3000E+01  1.2987E+00  7.3865E-01  6.4274E+01  3.6556E+01
  8.4000E+01  5.0429E-01  2.8985E-01  6.4778E+01  3.7233E+01
  8.5000E+01  1.1541E+00  6.7261E-01  6.5932E+01  3.8425E+01
  8.6000E+01  1.2281E+00  7.2580E-01  6.7160E+01  3.9691E+01
  8.7000E+01  7.1545E-01  4.2734E-01  6.7876E+01  4.0542E+01
  8.8000E+01  7.4831E-01  4.5167E-01  6.8624E+01  4.1421E+01
  8.9000E+01  7.2171E-01  4.4001E-01  6.9346E+01  4.2278E+01
  9.0000E+01  6.7533E-01  4.1565E-01  7.0021E+01  4.3096E+01
  9.1000E+01  7.2552E-01  4.5082E-01  7.0747E+01  4.3960E+01
  9.2000E+01  7.8625E-01  4.9331E-01  7.1533E+01  4.4882E+01
  9.3000E+01  7.3176E-01  4.6335E-01  7.2265E+01  4.5758E+01
  9.4000E+01  7.1703E-01  4.5808E-01  7.2982E+01  4.6625E+01
  9.5000E+01  7.2758E-01  4.6893E-01  7.3709E+01  4.7506E+01
  9.6000E+01  7.0407E-01  4.5765E-01  7.4413E+01  4.8369E+01
  9.6031E+01  2.7507E-02  1.7857E-02  7.4441E+01  4.8324E+01
  9.6087E+01  5.8382E-02  3.7812E-02  7.4499E+01  4.8251E+01
  9.6274E+01  2.4659E-01  1.5857E-01  7.4746E+01  4.8064E+01
  9.6801E+01  9.0640E-01  5.7195E-01  7.5652E+01  4.7737E+01
  9.7000E+01  3.6364E-01  2.2788E-01  7.6016E+01  4.7637E+01
  9.7995E+01  1.7421E+00  1.0695E+00  7.7758E+01  4.7737E+01
  9.8000E+01  8.0883E-03  4.9650E-03  7.7766E+01  4.7737E+01
  9.8023E+01  2.8759E-02  1.7654E-02  7.7795E+01  4.7756E+01
  9.8139E+01  1.4143E-01  8.6823E-02  7.7936E+01  4.7846E+01
  9.8716E+01  6.8444E-01  4.2028E-01  7.8621E+01  4.8276E+01
  9.9000E+01  3.3273E-01  2.0432E-01  7.8953E+01  4.8483E+01
  1.0000E+02  7.0475E-01  4.3366E-01  7.9658E+01  4.9016E+01
  1.0100E+02  9.1370E-01  5.6712E-01  8.0572E+01  5.0010E+01
  1.0200E+02  8.6033E-01  5.3847E-01  8.1432E+01  5.0967E+01
  1.0300E+02  9.5896E-01  6.0563E-01  8.2391E+01  5.2034E+01
  1.0400E+02  1.2964E+00  8.2794E-01  8.3687E+01  5.3448E+01
  1.0500E+02  1.2316E+00  7.9519E-01  8.4919E+01  5.4829E+01
  1.0600E+02  8.3743E-01  5.4527E-01  8.5756E+01  5.5838E+01
  1.0602E+02  8.3878E-03  5.4551E-03  8.5765E+01  5.5778E+01
  1.0605E+02  2.0399E-02  1.3235E-02  8.5785E+01  5.5658E+01
  1.0614E+02  6.9992E-02  4.5122E-02  8.5855E+01  5.5349E+01
  1.0634E+02  2.0960E-01  1.3319E-01  8.6065E+01  5.4689E+01
  1.0670E+02  4.3867E-01  2.7211E-01  8.6504E+01  5.3658E+01
  1.0700E+02  4.0690E-01  2.4742E-01  8.6910E+01  5.2848E+01
  1.0781E+02  1.7004E+00  1.0471E+00  8.8611E+01  5.4568E+01
  1.0800E+02  3.6497E-01  2.2538E-01  8.8976E+01  5.4945E+01
  1.0893E+02  1.5112E+00  9.4440E-01  9.0487E+01  5.6549E+01
  1.0900E+02  1.1801E-01  7.3821E-02  9.0605E+01  5.6676E+01
  1.0937E+02  4.5305E-01  2.8449E-01  9.1058E+01  5.7180E+01
  1.1000E+02  7.2497E-01  4.5813E-01  9.1783E+01  5.8000E+01
  1.1100E+02  1.1046E+00  7.0315E-01  9.2888E+01  5.9132E+01
  1.1200E+02  1.2462E+00  8.0188E-01  9.4134E+01  6.0573E+01
  1.1300E+02  1.1719E+00  7.6197E-01  9.5306E+01  6.1968E+01
  1.1400E+02  4.2966E-01  2.8094E-01  9.5735E+01  6.2597E+01
  1.1500E+02  3.3377E-01  2.1933E-01  9.6069E+01  6.3130E+01
  1.1600E+02  3.6550E-01  2.4143E-01  9.6435E+01  6.3700E+01
  1.1700E+02  1.2005E+00  8.0155E-01  9.7635E+01  6.5189E+01
  1.1800E+02  5.9891E-01  4.0258E-01  9.8234E+01  6.6032E+01
  1.1900E+02  4.9783E-01  3.3666E-01  9.8732E+01  6.6769E+01
  1.2000E+02  5.1508E-01  3.5047E-01  9.9247E+01  6.7529E+01
  1.2100E+02  8.5765E-01  5.8851E-01  1.0010E+02  6.8690E+01
  1.2200E+02  8.5066E-01  5.8862E-01  1.0096E+02  6.9857E+01
  1.2300E+02  4.7606E-01  3.3055E-01  1.0143E+02  7.0427E+01
  1.2400E+02  4.2887E-01  2.9939E-01  1.0186E+02  7.1107E+01
  1.2500E+02  5.0204E-01  3.5252E-01  1.0236E+02  7.1876E+01
  1.2600E+02  4.5129E-01  3.1861E-01  1.0281E+02  7.2587E+01
  1.2700E+02  4.4528E-01  3.1606E-01  1.0326E+02  7.3293E+01
  1.2800E+02  5.4149E-01  3.8666E-01  1.0380E+02  7.4120E+01
  1.2900E+02  3.4439E-01  2.4704E-01  1.0414E+02  7.4705E+01
  1.3000E+02  3.8721E-01  2.7909E-01  1.0453E+02  7.5344E+01
  1.3100E+02  5.3427E-01  3.8734E-01  1.0507E+02  7.6172E+01
  1.3200E+02  4.8502E-01  3.5355E-01  1.0555E+02  7.6941E+01
  1.3300E+02  2.6760E-01  1.9581E-01  1.0582E+02  7.7431E+01
  1.3306E+02  1.5537E-02  1.1360E-02  1.0583E+02  7.7377E+01
  1.3322E+02  4.7296E-02  3.4509E-02  1.0588E+02  7.7256E+01
  1.3352E+02  1.1144E-01  8.1009E-02  1.0599E+02  7.7053E+01
  1.3400E+02  2.2318E-01  1.6132E-01  1.0622E+02  7.6777E+01
  1.3425E+02  1.1815E-01  8.4227E-02  1.0633E+02  7.5806E+01
  1.3448E+02  1.2718E-01  8.9551E-02  1.0646E+02  7.4965E+01
  1.3500E+02  3.5224E-01  2.4137E-01  1.0681E+02  7.3194E+01
  1.3597E+02  4.8412E-01  3.3336E-01  1.0730E+02  7.3885E+01
  1.3600E+02  1.2618E-02  8.6897E-03  1.0731E+02  7.3903E+01
  1.3613E+02  1.2292E-01  8.4739E-02  1.0743E+02  7.4065E+01
  1.3677E+02  5.5143E-01  3.8199E-01  1.0798E+02  7.4804E+01
  1.3700E+02  1.9528E-01  1.3551E-01  1.0818E+02  7.5068E+01
  1.3800E+02  8.4124E-01  5.8807E-01  1.0902E+02  7.6212E+01
  1.3812E+02  1.5633E-01  1.0637E-01  1.0918E+02  7.4282E+01
  1.3821E+02  1.2182E-01  8.1393E-02  1.0930E+02  7.3026E+01
  1.3840E+02  2.9787E-01  1.9163E-01  1.0960E+02  7.0508E+01
  1.3867E+02  4.7759E-01  2.9145E-01  1.1007E+02  6.7174E+01
  1.3900E+02  6.1085E-01  3.5097E-01  1.1069E+02  6.3595E+01
  1.3948E+02  8.7611E-01  5.0621E-01  1.1156E+02  6.4459E+01
  1.4000E+02  9.0790E-01  5.2767E-01  1.1247E+02  6.5367E+01
  1.4100E+02  9.4901E-01  5.5497E-01  1.1342E+02  6.6326E+01
  1.4200E+02  1.3079E+00  7.7169E-01  1.1473E+02  6.7693E+01
  1.4300E+02  1.5373E+00  9.1666E-01  1.1626E+02  6.9325E+01
  1.4400E+02  1.4969E+00  9.0212E-01  1.1776E+02  7.0968E+01
  1.4500E+02  1.4226E+00  8.6645E-01  1.1918E+02  7.2593E+01
  1.4600E+02  1.3790E+00  8.4908E-01  1.2056E+02  7.4232E+01
  1.4650E+02  7.3832E-01  4.5165E-01  1.2130E+02  7.4203E+01
  1.4700E+02  7.8369E-01  4.7650E-01  1.2208E+02  7.4229E+01
  1.4800E+02  1.2154E+00  7.4673E-01  1.2330E+02  7.5751E+01
  1.4900E+02  5.9371E-01  3.6725E-01  1.2389E+02  7.6637E+01
  1.5000E+02  5.2829E-01  3.2893E-01  1.2442E+02  7.7469E+01
