title = "dataset transp-updrld"
variables = "x", "y", "z", "vx", "vy", "vz"
zone t = "velocities, solution time =  1.500E+02 days        " i =   29, j =   29, k =    1,  f=point
  0.172414E-001  0.000000E+000  0.172414E-001  0.844608E-007  0.000000E+000 -0.551952E-003
  0.517241E-001  0.000000E+000  0.172414E-001  0.249810E-006  0.000000E+000 -0.550070E-003
  0.862069E-001  0.000000E+000  0.172414E-001  0.404684E-006  0.000000E+000 -0.546397E-003
  0.120690E+000  0.000000E+000  0.172414E-001  0.542346E-006  0.000000E+000 -0.541102E-003
  0.155172E+000  0.000000E+000  0.172414E-001  0.656218E-006  0.000000E+000 -0.534433E-003
  0.189655E+000  0.000000E+000  0.172414E-001  0.740009E-006  0.000000E+000 -0.526707E-003
  0.224138E+000  0.000000E+000  0.172414E-001  0.787950E-006  0.000000E+000 -0.518301E-003
  0.258621E+000  0.000000E+000  0.172414E-001  0.795179E-006  0.000000E+000 -0.509643E-003
  0.293103E+000  0.000000E+000  0.172414E-001  0.758260E-006  0.000000E+000 -0.501195E-003
  0.327586E+000  0.000000E+000  0.172414E-001  0.675814E-006  0.000000E+000 -0.493435E-003
  0.362069E+000  0.000000E+000  0.172414E-001  0.549179E-006  0.000000E+000 -0.486834E-003
  0.396552E+000  0.000000E+000  0.172414E-001  0.382945E-006  0.000000E+000 -0.481826E-003
  0.431034E+000  0.000000E+000  0.172414E-001  0.185197E-006  0.000000E+000 -0.478777E-003
  0.465517E+000  0.000000E+000  0.172414E-001 -0.327066E-007  0.000000E+000 -0.477959E-003
  0.500000E+000  0.000000E+000  0.172414E-001 -0.256699E-006  0.000000E+000 -0.479512E-003
  0.534483E+000  0.000000E+000  0.172414E-001 -0.472086E-006  0.000000E+000 -0.483423E-003
  0.568966E+000  0.000000E+000  0.172414E-001 -0.665571E-006  0.000000E+000 -0.489540E-003
  0.603448E+000  0.000000E+000  0.172414E-001 -0.826381E-006  0.000000E+000 -0.497590E-003
  0.637931E+000  0.000000E+000  0.172414E-001 -0.946992E-006  0.000000E+000 -0.507206E-003
  0.672414E+000  0.000000E+000  0.172414E-001 -0.102328E-005  0.000000E+000 -0.517955E-003
  0.706897E+000  0.000000E+000  0.172414E-001 -0.105422E-005  0.000000E+000 -0.529368E-003
  0.741379E+000  0.000000E+000  0.172414E-001 -0.104127E-005  0.000000E+000 -0.540966E-003
  0.775862E+000  0.000000E+000  0.172414E-001 -0.987702E-006  0.000000E+000 -0.552281E-003
  0.810345E+000  0.000000E+000  0.172414E-001 -0.897996E-006  0.000000E+000 -0.562876E-003
  0.844828E+000  0.000000E+000  0.172414E-001 -0.777316E-006  0.000000E+000 -0.572356E-003
  0.879310E+000  0.000000E+000  0.172414E-001 -0.631159E-006  0.000000E+000 -0.580376E-003
  0.913793E+000  0.000000E+000  0.172414E-001 -0.465137E-006  0.000000E+000 -0.586653E-003
  0.948276E+000  0.000000E+000  0.172414E-001 -0.284865E-006  0.000000E+000 -0.590966E-003
  0.991379E+000  0.000000E+000  0.172414E-001 -0.959439E-007  0.000000E+000 -0.593163E-003
  0.172414E-001  0.000000E+000  0.517241E-001  0.376881E-006  0.000000E+000 -0.557336E-003
  0.517241E-001  0.000000E+000  0.517241E-001  0.111441E-005  0.000000E+000 -0.555530E-003
  0.862069E-001  0.000000E+000  0.517241E-001  0.180389E-005  0.000000E+000 -0.552005E-003
  0.120690E+000  0.000000E+000  0.517241E-001  0.241440E-005  0.000000E+000 -0.546928E-003
  0.155172E+000  0.000000E+000  0.517241E-001  0.291620E-005  0.000000E+000 -0.540538E-003
  0.189655E+000  0.000000E+000  0.517241E-001  0.328144E-005  0.000000E+000 -0.533141E-003
  0.224138E+000  0.000000E+000  0.517241E-001  0.348533E-005  0.000000E+000 -0.525102E-003
  0.258621E+000  0.000000E+000  0.517241E-001  0.350779E-005  0.000000E+000 -0.516831E-003
  0.293103E+000  0.000000E+000  0.517241E-001  0.333556E-005  0.000000E+000 -0.508771E-003
  0.327586E+000  0.000000E+000  0.517241E-001  0.296468E-005  0.000000E+000 -0.501378E-003
  0.362069E+000  0.000000E+000  0.517241E-001  0.240289E-005  0.000000E+000 -0.495097E-003
  0.396552E+000  0.000000E+000  0.517241E-001  0.167155E-005  0.000000E+000 -0.490338E-003
  0.431034E+000  0.000000E+000  0.517241E-001  0.806188E-006  0.000000E+000 -0.487447E-003
  0.465517E+000  0.000000E+000  0.517241E-001 -0.144651E-006  0.000000E+000 -0.486680E-003
  0.500000E+000  0.000000E+000  0.517241E-001 -0.112251E-005  0.000000E+000 -0.488167E-003
  0.534483E+000  0.000000E+000  0.517241E-001 -0.206606E-005  0.000000E+000 -0.491899E-003
  0.568966E+000  0.000000E+000  0.517241E-001 -0.291877E-005  0.000000E+000 -0.497733E-003
  0.603448E+000  0.000000E+000  0.517241E-001 -0.363381E-005  0.000000E+000 -0.505413E-003
  0.637931E+000  0.000000E+000  0.517241E-001 -0.417725E-005  0.000000E+000 -0.514594E-003
  0.672414E+000  0.000000E+000  0.517241E-001 -0.452901E-005  0.000000E+000 -0.524869E-003
  0.706897E+000  0.000000E+000  0.517241E-001 -0.468198E-005  0.000000E+000 -0.535791E-003
  0.741379E+000  0.000000E+000  0.517241E-001 -0.463992E-005  0.000000E+000 -0.546905E-003
  0.775862E+000  0.000000E+000  0.517241E-001 -0.441499E-005  0.000000E+000 -0.557761E-003
  0.810345E+000  0.000000E+000  0.517241E-001 -0.402524E-005  0.000000E+000 -0.567938E-003
  0.844828E+000  0.000000E+000  0.517241E-001 -0.349261E-005  0.000000E+000 -0.577052E-003
  0.879310E+000  0.000000E+000  0.517241E-001 -0.284130E-005  0.000000E+000 -0.584770E-003
  0.913793E+000  0.000000E+000  0.517241E-001 -0.209680E-005  0.000000E+000 -0.590815E-003
  0.948276E+000  0.000000E+000  0.517241E-001 -0.128521E-005  0.000000E+000 -0.594971E-003
  0.991379E+000  0.000000E+000  0.517241E-001 -0.432985E-006  0.000000E+000 -0.597089E-003
  0.172414E-001  0.000000E+000  0.862069E-001  0.861056E-006  0.000000E+000 -0.564969E-003
  0.517241E-001  0.000000E+000  0.862069E-001  0.254547E-005  0.000000E+000 -0.563248E-003
  0.862069E-001  0.000000E+000  0.862069E-001  0.411795E-005  0.000000E+000 -0.559889E-003
  0.120690E+000  0.000000E+000  0.862069E-001  0.550651E-005  0.000000E+000 -0.555054E-003
  0.155172E+000  0.000000E+000  0.862069E-001  0.664265E-005  0.000000E+000 -0.548972E-003
  0.189655E+000  0.000000E+000  0.862069E-001  0.746323E-005  0.000000E+000 -0.541936E-003
  0.224138E+000  0.000000E+000  0.862069E-001  0.791325E-005  0.000000E+000 -0.534296E-003
  0.258621E+000  0.000000E+000  0.862069E-001  0.794943E-005  0.000000E+000 -0.526442E-003
  0.293103E+000  0.000000E+000  0.862069E-001  0.754482E-005  0.000000E+000 -0.518794E-003
  0.327586E+000  0.000000E+000  0.862069E-001  0.669375E-005  0.000000E+000 -0.511783E-003
  0.362069E+000  0.000000E+000  0.862069E-001  0.541661E-005  0.000000E+000 -0.505829E-003
  0.396552E+000  0.000000E+000  0.862069E-001  0.376334E-005  0.000000E+000 -0.501317E-003
  0.431034E+000  0.000000E+000  0.862069E-001  0.181411E-005  0.000000E+000 -0.498572E-003
  0.465517E+000  0.000000E+000  0.862069E-001 -0.323746E-006  0.000000E+000 -0.497832E-003
  0.500000E+000  0.000000E+000  0.862069E-001 -0.252307E-005  0.000000E+000 -0.499222E-003
  0.534483E+000  0.000000E+000  0.862069E-001 -0.465025E-005  0.000000E+000 -0.502733E-003
  0.568966E+000  0.000000E+000  0.862069E-001 -0.658058E-005  0.000000E+000 -0.508234E-003
  0.603448E+000  0.000000E+000  0.862069E-001 -0.820921E-005  0.000000E+000 -0.515486E-003
  0.637931E+000  0.000000E+000  0.862069E-001 -0.945828E-005  0.000000E+000 -0.524169E-003
  0.672414E+000  0.000000E+000  0.862069E-001 -0.102795E-004  0.000000E+000 -0.533898E-003
  0.706897E+000  0.000000E+000  0.862069E-001 -0.106526E-004  0.000000E+000 -0.544255E-003
  0.741379E+000  0.000000E+000  0.862069E-001 -0.105821E-004  0.000000E+000 -0.554808E-003
  0.775862E+000  0.000000E+000  0.862069E-001 -0.100915E-004  0.000000E+000 -0.565129E-003
  0.810345E+000  0.000000E+000  0.862069E-001 -0.921908E-005  0.000000E+000 -0.574816E-003
  0.844828E+000  0.000000E+000  0.862069E-001 -0.801288E-005  0.000000E+000 -0.583501E-003
  0.879310E+000  0.000000E+000  0.862069E-001 -0.652763E-005  0.000000E+000 -0.590863E-003
  0.913793E+000  0.000000E+000  0.862069E-001 -0.482209E-005  0.000000E+000 -0.596632E-003
  0.948276E+000  0.000000E+000  0.862069E-001 -0.295750E-005  0.000000E+000 -0.600601E-003
  0.991379E+000  0.000000E+000  0.862069E-001 -0.996625E-006  0.000000E+000 -0.602624E-003
  0.172414E-001  0.000000E+000  0.120690E+000  0.144685E-005  0.000000E+000 -0.572207E-003
  0.517241E-001  0.000000E+000  0.120690E+000  0.427652E-005  0.000000E+000 -0.570536E-003
  0.862069E-001  0.000000E+000  0.120690E+000  0.691595E-005  0.000000E+000 -0.567276E-003
  0.120690E+000  0.000000E+000  0.120690E+000  0.924306E-005  0.000000E+000 -0.562582E-003
  0.155172E+000  0.000000E+000  0.120690E+000  0.111424E-004  0.000000E+000 -0.556678E-003
  0.189655E+000  0.000000E+000  0.120690E+000  0.125086E-004  0.000000E+000 -0.549847E-003
  0.224138E+000  0.000000E+000  0.120690E+000  0.132509E-004  0.000000E+000 -0.542426E-003
  0.258621E+000  0.000000E+000  0.120690E+000  0.132993E-004  0.000000E+000 -0.534794E-003
  0.293103E+000  0.000000E+000  0.120690E+000  0.126117E-004  0.000000E+000 -0.527358E-003
  0.327586E+000  0.000000E+000  0.120690E+000  0.111815E-004  0.000000E+000 -0.520532E-003
  0.362069E+000  0.000000E+000  0.120690E+000  0.904539E-005  0.000000E+000 -0.514723E-003
  0.396552E+000  0.000000E+000  0.120690E+000  0.628781E-005  0.000000E+000 -0.510304E-003
  0.431034E+000  0.000000E+000  0.120690E+000  0.304211E-005  0.000000E+000 -0.507589E-003
  0.465517E+000  0.000000E+000  0.120690E+000 -0.514985E-006  0.000000E+000 -0.506811E-003
  0.500000E+000  0.000000E+000  0.120690E+000 -0.417560E-005  0.000000E+000 -0.508092E-003
  0.534483E+000  0.000000E+000  0.120690E+000 -0.772105E-005  0.000000E+000 -0.511425E-003
  0.568966E+000  0.000000E+000  0.120690E+000 -0.109460E-004  0.000000E+000 -0.516685E-003
  0.603448E+000  0.000000E+000  0.120690E+000 -0.136765E-004  0.000000E+000 -0.523644E-003
  0.637931E+000  0.000000E+000  0.120690E+000 -0.157817E-004  0.000000E+000 -0.531990E-003
  0.672414E+000  0.000000E+000  0.120690E+000 -0.171782E-004  0.000000E+000 -0.541355E-003
  0.706897E+000  0.000000E+000  0.120690E+000 -0.178289E-004  0.000000E+000 -0.551333E-003
  0.741379E+000  0.000000E+000  0.120690E+000 -0.177368E-004  0.000000E+000 -0.561507E-003
  0.775862E+000  0.000000E+000  0.120690E+000 -0.169379E-004  0.000000E+000 -0.571465E-003
  0.810345E+000  0.000000E+000  0.120690E+000 -0.154927E-004  0.000000E+000 -0.580816E-003
  0.844828E+000  0.000000E+000  0.120690E+000 -0.134801E-004  0.000000E+000 -0.589205E-003
  0.879310E+000  0.000000E+000  0.120690E+000 -0.109910E-004  0.000000E+000 -0.596318E-003
  0.913793E+000  0.000000E+000  0.120690E+000 -0.812461E-005  0.000000E+000 -0.601895E-003
  0.948276E+000  0.000000E+000  0.120690E+000 -0.498513E-005  0.000000E+000 -0.605733E-003
  0.991379E+000  0.000000E+000  0.120690E+000 -0.168022E-005  0.000000E+000 -0.607689E-003
  0.172414E-001  0.000000E+000  0.155172E+000  0.208941E-005  0.000000E+000 -0.577430E-003
  0.517241E-001  0.000000E+000  0.155172E+000  0.617538E-005  0.000000E+000 -0.575753E-003
  0.862069E-001  0.000000E+000  0.155172E+000  0.998551E-005  0.000000E+000 -0.572479E-003
  0.120690E+000  0.000000E+000  0.155172E+000  0.133431E-004  0.000000E+000 -0.567762E-003
  0.155172E+000  0.000000E+000  0.155172E+000  0.160815E-004  0.000000E+000 -0.561822E-003
  0.189655E+000  0.000000E+000  0.155172E+000  0.180494E-004  0.000000E+000 -0.554941E-003
  0.224138E+000  0.000000E+000  0.155172E+000  0.191171E-004  0.000000E+000 -0.547454E-003
  0.258621E+000  0.000000E+000  0.155172E+000  0.191853E-004  0.000000E+000 -0.539736E-003
  0.293103E+000  0.000000E+000  0.155172E+000  0.181951E-004  0.000000E+000 -0.532195E-003
  0.327586E+000  0.000000E+000  0.155172E+000  0.161386E-004  0.000000E+000 -0.525247E-003
  0.362069E+000  0.000000E+000  0.155172E+000  0.130691E-004  0.000000E+000 -0.519304E-003
  0.396552E+000  0.000000E+000  0.155172E+000  0.910836E-005  0.000000E+000 -0.514746E-003
  0.431034E+000  0.000000E+000  0.155172E+000  0.444724E-005  0.000000E+000 -0.511895E-003
  0.465517E+000  0.000000E+000  0.155172E+000 -0.661807E-006  0.000000E+000 -0.510991E-003
  0.500000E+000  0.000000E+000  0.155172E+000 -0.592225E-005  0.000000E+000 -0.512162E-003
  0.534483E+000  0.000000E+000  0.155172E+000 -0.110216E-004  0.000000E+000 -0.515405E-003
  0.568966E+000  0.000000E+000  0.155172E+000 -0.156656E-004  0.000000E+000 -0.520592E-003
  0.603448E+000  0.000000E+000  0.155172E+000 -0.196041E-004  0.000000E+000 -0.527490E-003
  0.637931E+000  0.000000E+000  0.155172E+000 -0.226482E-004  0.000000E+000 -0.535780E-003
  0.672414E+000  0.000000E+000  0.155172E+000 -0.246769E-004  0.000000E+000 -0.545090E-003
  0.706897E+000  0.000000E+000  0.155172E+000 -0.256347E-004  0.000000E+000 -0.555010E-003
  0.741379E+000  0.000000E+000  0.155172E+000 -0.255236E-004  0.000000E+000 -0.565122E-003
  0.775862E+000  0.000000E+000  0.155172E+000 -0.243925E-004  0.000000E+000 -0.575016E-003
  0.810345E+000  0.000000E+000  0.155172E+000 -0.223266E-004  0.000000E+000 -0.584303E-003
  0.844828E+000  0.000000E+000  0.155172E+000 -0.194378E-004  0.000000E+000 -0.592630E-003
  0.879310E+000  0.000000E+000  0.155172E+000 -0.158564E-004  0.000000E+000 -0.599690E-003
  0.913793E+000  0.000000E+000  0.155172E+000 -0.117255E-004  0.000000E+000 -0.605223E-003
  0.948276E+000  0.000000E+000  0.155172E+000 -0.719636E-005  0.000000E+000 -0.609030E-003
  0.991379E+000  0.000000E+000  0.155172E+000 -0.242580E-005  0.000000E+000 -0.610971E-003
  0.172414E-001  0.000000E+000  0.189655E+000  0.278228E-005  0.000000E+000 -0.579779E-003
  0.517241E-001  0.000000E+000  0.189655E+000  0.822363E-005  0.000000E+000 -0.578027E-003
  0.862069E-001  0.000000E+000  0.189655E+000  0.132989E-004  0.000000E+000 -0.574605E-003
  0.120690E+000  0.000000E+000  0.189655E+000  0.177737E-004  0.000000E+000 -0.569668E-003
  0.155172E+000  0.000000E+000  0.189655E+000  0.214269E-004  0.000000E+000 -0.563439E-003
  0.189655E+000  0.000000E+000  0.189655E+000  0.240579E-004  0.000000E+000 -0.556205E-003
  0.224138E+000  0.000000E+000  0.189655E+000  0.254944E-004  0.000000E+000 -0.548308E-003
  0.258621E+000  0.000000E+000  0.189655E+000  0.256044E-004  0.000000E+000 -0.540137E-003
  0.293103E+000  0.000000E+000  0.189655E+000  0.243082E-004  0.000000E+000 -0.532113E-003
  0.327586E+000  0.000000E+000  0.189655E+000  0.215939E-004  0.000000E+000 -0.524676E-003
  0.362069E+000  0.000000E+000  0.189655E+000  0.175300E-004  0.000000E+000 -0.518266E-003
  0.396552E+000  0.000000E+000  0.189655E+000  0.122759E-004  0.000000E+000 -0.513291E-003
  0.431034E+000  0.000000E+000  0.189655E+000  0.608418E-005  0.000000E+000 -0.510105E-003
  0.465517E+000  0.000000E+000  0.189655E+000 -0.709533E-006  0.000000E+000 -0.508973E-003
  0.500000E+000  0.000000E+000  0.189655E+000 -0.771013E-005  0.000000E+000 -0.510041E-003
  0.534483E+000  0.000000E+000  0.189655E+000 -0.145000E-004  0.000000E+000 -0.513306E-003
  0.568966E+000  0.000000E+000  0.189655E+000 -0.206848E-004  0.000000E+000 -0.518630E-003
  0.603448E+000  0.000000E+000  0.189655E+000 -0.259297E-004  0.000000E+000 -0.525756E-003
  0.637931E+000  0.000000E+000  0.189655E+000 -0.299840E-004  0.000000E+000 -0.534337E-003
  0.672414E+000  0.000000E+000  0.189655E+000 -0.326878E-004  0.000000E+000 -0.543971E-003
  0.706897E+000  0.000000E+000  0.189655E+000 -0.339690E-004  0.000000E+000 -0.554225E-003
  0.741379E+000  0.000000E+000  0.189655E+000 -0.338309E-004  0.000000E+000 -0.564661E-003
  0.775862E+000  0.000000E+000  0.189655E+000 -0.323389E-004  0.000000E+000 -0.574855E-003
  0.810345E+000  0.000000E+000  0.189655E+000 -0.296059E-004  0.000000E+000 -0.584408E-003
  0.844828E+000  0.000000E+000  0.189655E+000 -0.257796E-004  0.000000E+000 -0.592962E-003
  0.879310E+000  0.000000E+000  0.189655E+000 -0.210328E-004  0.000000E+000 -0.600204E-003
  0.913793E+000  0.000000E+000  0.189655E+000 -0.155550E-004  0.000000E+000 -0.605875E-003
  0.948276E+000  0.000000E+000  0.189655E+000 -0.954739E-005  0.000000E+000 -0.609775E-003
  0.991379E+000  0.000000E+000  0.189655E+000 -0.321843E-005  0.000000E+000 -0.611762E-003
  0.172414E-001  0.000000E+000  0.224138E+000  0.353934E-005  0.000000E+000 -0.578914E-003
  0.517241E-001  0.000000E+000  0.224138E+000  0.104631E-004  0.000000E+000 -0.577014E-003
  0.862069E-001  0.000000E+000  0.224138E+000  0.169263E-004  0.000000E+000 -0.573299E-003
  0.120690E+000  0.000000E+000  0.224138E+000  0.226336E-004  0.000000E+000 -0.567930E-003
  0.155172E+000  0.000000E+000  0.224138E+000  0.273061E-004  0.000000E+000 -0.561137E-003
  0.189655E+000  0.000000E+000  0.224138E+000  0.306890E-004  0.000000E+000 -0.553221E-003
  0.224138E+000  0.000000E+000  0.224138E+000  0.325623E-004  0.000000E+000 -0.544540E-003
  0.258621E+000  0.000000E+000  0.224138E+000  0.327548E-004  0.000000E+000 -0.535510E-003
  0.293103E+000  0.000000E+000  0.224138E+000  0.311600E-004  0.000000E+000 -0.526586E-003
  0.327586E+000  0.000000E+000  0.224138E+000  0.277551E-004  0.000000E+000 -0.518252E-003
  0.362069E+000  0.000000E+000  0.224138E+000  0.226195E-004  0.000000E+000 -0.510999E-003
  0.396552E+000  0.000000E+000  0.224138E+000  0.159500E-004  0.000000E+000 -0.505293E-003
  0.431034E+000  0.000000E+000  0.224138E+000  0.806584E-005  0.000000E+000 -0.501546E-003
  0.465517E+000  0.000000E+000  0.224138E+000 -0.601997E-006  0.000000E+000 -0.500071E-003
  0.500000E+000  0.000000E+000  0.224138E+000 -0.954405E-005  0.000000E+000 -0.501042E-003
  0.534483E+000  0.000000E+000  0.224138E+000 -0.182195E-004  0.000000E+000 -0.504462E-003
  0.568966E+000  0.000000E+000  0.224138E+000 -0.261147E-004  0.000000E+000 -0.510165E-003
  0.603448E+000  0.000000E+000  0.224138E+000 -0.327975E-004  0.000000E+000 -0.517849E-003
  0.637931E+000  0.000000E+000  0.224138E+000 -0.379498E-004  0.000000E+000 -0.527113E-003
  0.672414E+000  0.000000E+000  0.224138E+000 -0.413746E-004  0.000000E+000 -0.537497E-003
  0.706897E+000  0.000000E+000  0.224138E+000 -0.429874E-004  0.000000E+000 -0.548521E-003
  0.741379E+000  0.000000E+000  0.224138E+000 -0.427995E-004  0.000000E+000 -0.559706E-003
  0.775862E+000  0.000000E+000  0.224138E+000 -0.408984E-004  0.000000E+000 -0.570598E-003
  0.810345E+000  0.000000E+000  0.224138E+000 -0.374304E-004  0.000000E+000 -0.580777E-003
  0.844828E+000  0.000000E+000  0.224138E+000 -0.325844E-004  0.000000E+000 -0.589869E-003
  0.879310E+000  0.000000E+000  0.224138E+000 -0.265790E-004  0.000000E+000 -0.597550E-003
  0.913793E+000  0.000000E+000  0.224138E+000 -0.196538E-004  0.000000E+000 -0.603557E-003
  0.948276E+000  0.000000E+000  0.224138E+000 -0.120619E-004  0.000000E+000 -0.607681E-003
  0.991379E+000  0.000000E+000  0.224138E+000 -0.406587E-005  0.000000E+000 -0.609782E-003
  0.172414E-001  0.000000E+000  0.258621E+000  0.438470E-005  0.000000E+000 -0.574850E-003
  0.517241E-001  0.000000E+000  0.258621E+000  0.129659E-004  0.000000E+000 -0.572727E-003
  0.862069E-001  0.000000E+000  0.258621E+000  0.209875E-004  0.000000E+000 -0.568570E-003
  0.120690E+000  0.000000E+000  0.258621E+000  0.280897E-004  0.000000E+000 -0.562548E-003
  0.155172E+000  0.000000E+000  0.258621E+000  0.339306E-004  0.000000E+000 -0.554906E-003
  0.189655E+000  0.000000E+000  0.258621E+000  0.381953E-004  0.000000E+000 -0.545963E-003
  0.224138E+000  0.000000E+000  0.258621E+000  0.406083E-004  0.000000E+000 -0.536105E-003
  0.258621E+000  0.000000E+000  0.258621E+000  0.409495E-004  0.000000E+000 -0.525784E-003
  0.293103E+000  0.000000E+000  0.258621E+000  0.390746E-004  0.000000E+000 -0.515508E-003
  0.327586E+000  0.000000E+000  0.258621E+000  0.349396E-004  0.000000E+000 -0.505827E-003
  0.362069E+000  0.000000E+000  0.258621E+000  0.286260E-004  0.000000E+000 -0.497310E-003
  0.396552E+000  0.000000E+000  0.258621E+000  0.203644E-004  0.000000E+000 -0.490517E-003
  0.431034E+000  0.000000E+000  0.258621E+000  0.105476E-004  0.000000E+000 -0.485950E-003
  0.465517E+000  0.000000E+000  0.258621E+000 -0.277098E-006  0.000000E+000 -0.483997E-003
  0.500000E+000  0.000000E+000  0.258621E+000 -0.114615E-004  0.000000E+000 -0.484877E-003
  0.534483E+000  0.000000E+000  0.258621E+000 -0.223150E-004  0.000000E+000 -0.488599E-003
  0.568966E+000  0.000000E+000  0.258621E+000 -0.321705E-004  0.000000E+000 -0.494959E-003
  0.603448E+000  0.000000E+000  0.258621E+000 -0.404770E-004  0.000000E+000 -0.503577E-003
  0.637931E+000  0.000000E+000  0.258621E+000 -0.468446E-004  0.000000E+000 -0.513960E-003
  0.672414E+000  0.000000E+000  0.258621E+000 -0.510438E-004  0.000000E+000 -0.525560E-003
  0.706897E+000  0.000000E+000  0.258621E+000 -0.529873E-004  0.000000E+000 -0.537823E-003
  0.741379E+000  0.000000E+000  0.258621E+000 -0.527047E-004  0.000000E+000 -0.550209E-003
  0.775862E+000  0.000000E+000  0.258621E+000 -0.503165E-004  0.000000E+000 -0.562218E-003
  0.810345E+000  0.000000E+000  0.258621E+000 -0.460110E-004  0.000000E+000 -0.573397E-003
  0.844828E+000  0.000000E+000  0.258621E+000 -0.400252E-004  0.000000E+000 -0.583348E-003
  0.879310E+000  0.000000E+000  0.258621E+000 -0.326296E-004  0.000000E+000 -0.591733E-003
  0.913793E+000  0.000000E+000  0.258621E+000 -0.241174E-004  0.000000E+000 -0.598274E-003
  0.948276E+000  0.000000E+000  0.258621E+000 -0.147971E-004  0.000000E+000 -0.602760E-003
  0.991379E+000  0.000000E+000  0.258621E+000 -0.498716E-005  0.000000E+000 -0.605042E-003
  0.172414E-001  0.000000E+000  0.293103E+000  0.534742E-005  0.000000E+000 -0.567832E-003
  0.517241E-001  0.000000E+000  0.293103E+000  0.158192E-004  0.000000E+000 -0.565411E-003
  0.862069E-001  0.000000E+000  0.293103E+000  0.256276E-004  0.000000E+000 -0.560663E-003
  0.120690E+000  0.000000E+000  0.293103E+000  0.343438E-004  0.000000E+000 -0.553769E-003
  0.155172E+000  0.000000E+000  0.293103E+000  0.415574E-004  0.000000E+000 -0.544989E-003
  0.189655E+000  0.000000E+000  0.293103E+000  0.468855E-004  0.000000E+000 -0.534665E-003
  0.224138E+000  0.000000E+000  0.293103E+000  0.499861E-004  0.000000E+000 -0.523218E-003
  0.258621E+000  0.000000E+000  0.293103E+000  0.505767E-004  0.000000E+000 -0.511149E-003
  0.293103E+000  0.000000E+000  0.293103E+000  0.484594E-004  0.000000E+000 -0.499032E-003
  0.327586E+000  0.000000E+000  0.293103E+000  0.435512E-004  0.000000E+000 -0.487504E-003
  0.362069E+000  0.000000E+000  0.293103E+000  0.359202E-004  0.000000E+000 -0.477247E-003
  0.396552E+000  0.000000E+000  0.293103E+000  0.258214E-004  0.000000E+000 -0.468950E-003
  0.431034E+000  0.000000E+000  0.293103E+000  0.137267E-004  0.000000E+000 -0.463255E-003
  0.465517E+000  0.000000E+000  0.293103E+000  0.338960E-006  0.000000E+000 -0.460663E-003
  0.500000E+000  0.000000E+000  0.293103E+000 -0.135201E-004  0.000000E+000 -0.461451E-003
  0.534483E+000  0.000000E+000  0.293103E+000 -0.269800E-004  0.000000E+000 -0.465648E-003
  0.568966E+000  0.000000E+000  0.293103E+000 -0.391527E-004  0.000000E+000 -0.472993E-003
  0.603448E+000  0.000000E+000  0.293103E+000 -0.493353E-004  0.000000E+000 -0.482980E-003
  0.637931E+000  0.000000E+000  0.293103E+000 -0.570665E-004  0.000000E+000 -0.494973E-003
  0.672414E+000  0.000000E+000  0.293103E+000 -0.620968E-004  0.000000E+000 -0.508301E-003
  0.706897E+000  0.000000E+000  0.293103E+000 -0.643529E-004  0.000000E+000 -0.522305E-003
  0.741379E+000  0.000000E+000  0.293103E+000 -0.638999E-004  0.000000E+000 -0.536365E-003
  0.775862E+000  0.000000E+000  0.293103E+000 -0.609065E-004  0.000000E+000 -0.549922E-003
  0.810345E+000  0.000000E+000  0.293103E+000 -0.556157E-004  0.000000E+000 -0.562480E-003
  0.844828E+000  0.000000E+000  0.293103E+000 -0.483222E-004  0.000000E+000 -0.573613E-003
  0.879310E+000  0.000000E+000  0.293103E+000 -0.393556E-004  0.000000E+000 -0.582961E-003
  0.913793E+000  0.000000E+000  0.293103E+000 -0.290678E-004  0.000000E+000 -0.590236E-003
  0.948276E+000  0.000000E+000  0.293103E+000 -0.178259E-004  0.000000E+000 -0.595215E-003
  0.991379E+000  0.000000E+000  0.293103E+000 -0.600654E-005  0.000000E+000 -0.597746E-003
  0.172414E-001  0.000000E+000  0.327586E+000  0.645843E-005  0.000000E+000 -0.558249E-003
  0.517241E-001  0.000000E+000  0.327586E+000  0.191161E-004  0.000000E+000 -0.555457E-003
  0.862069E-001  0.000000E+000  0.327586E+000  0.310019E-004  0.000000E+000 -0.549975E-003
  0.120690E+000  0.000000E+000  0.327586E+000  0.416143E-004  0.000000E+000 -0.541993E-003
  0.155172E+000  0.000000E+000  0.327586E+000  0.504677E-004  0.000000E+000 -0.531788E-003
  0.189655E+000  0.000000E+000  0.327586E+000  0.571017E-004  0.000000E+000 -0.519727E-003
  0.224138E+000  0.000000E+000  0.327586E+000  0.610946E-004  0.000000E+000 -0.506268E-003
  0.258621E+000  0.000000E+000  0.327586E+000  0.620837E-004  0.000000E+000 -0.491968E-003
  0.293103E+000  0.000000E+000  0.327586E+000  0.597945E-004  0.000000E+000 -0.477478E-003
  0.327586E+000  0.000000E+000  0.327586E+000  0.540793E-004  0.000000E+000 -0.463544E-003
  0.362069E+000  0.000000E+000  0.327586E+000  0.449653E-004  0.000000E+000 -0.450988E-003
  0.396552E+000  0.000000E+000  0.327586E+000  0.327091E-004  0.000000E+000 -0.440681E-003
  0.431034E+000  0.000000E+000  0.327586E+000  0.178501E-004  0.000000E+000 -0.433481E-003
  0.465517E+000  0.000000E+000  0.327586E+000  0.133847E-005  0.000000E+000 -0.430049E-003
  0.500000E+000  0.000000E+000  0.327586E+000 -0.157848E-004  0.000000E+000 -0.430730E-003
  0.534483E+000  0.000000E+000  0.327586E+000 -0.324753E-004  0.000000E+000 -0.435602E-003
  0.568966E+000  0.000000E+000  0.327586E+000 -0.474600E-004  0.000000E+000 -0.444343E-003
  0.603448E+000  0.000000E+000  0.327586E+000 -0.598390E-004  0.000000E+000 -0.456225E-003
  0.637931E+000  0.000000E+000  0.327586E+000 -0.691033E-004  0.000000E+000 -0.470397E-003
  0.672414E+000  0.000000E+000  0.327586E+000 -0.750108E-004  0.000000E+000 -0.486017E-003
  0.706897E+000  0.000000E+000  0.327586E+000 -0.775301E-004  0.000000E+000 -0.502297E-003
  0.741379E+000  0.000000E+000  0.327586E+000 -0.767868E-004  0.000000E+000 -0.518522E-003
  0.775862E+000  0.000000E+000  0.327586E+000 -0.730186E-004  0.000000E+000 -0.534063E-003
  0.810345E+000  0.000000E+000  0.327586E+000 -0.665398E-004  0.000000E+000 -0.548378E-003
  0.844828E+000  0.000000E+000  0.327586E+000 -0.577153E-004  0.000000E+000 -0.561006E-003
  0.879310E+000  0.000000E+000  0.327586E+000 -0.469419E-004  0.000000E+000 -0.571569E-003
  0.913793E+000  0.000000E+000  0.327586E+000 -0.346360E-004  0.000000E+000 -0.579765E-003
  0.948276E+000  0.000000E+000  0.327586E+000 -0.212263E-004  0.000000E+000 -0.585364E-003
  0.991379E+000  0.000000E+000  0.327586E+000 -0.714998E-005  0.000000E+000 -0.588207E-003
  0.172414E-001  0.000000E+000  0.362069E+000  0.774819E-005  0.000000E+000 -0.546559E-003
  0.517241E-001  0.000000E+000  0.362069E+000  0.229484E-004  0.000000E+000 -0.543329E-003
  0.862069E-001  0.000000E+000  0.362069E+000  0.372657E-004  0.000000E+000 -0.536977E-003
  0.120690E+000  0.000000E+000  0.362069E+000  0.501220E-004  0.000000E+000 -0.527703E-003
  0.155172E+000  0.000000E+000  0.362069E+000  0.609508E-004  0.000000E+000 -0.515797E-003
  0.189655E+000  0.000000E+000  0.362069E+000  0.692042E-004  0.000000E+000 -0.501649E-003
  0.224138E+000  0.000000E+000  0.362069E+000  0.743653E-004  0.000000E+000 -0.485752E-003
  0.258621E+000  0.000000E+000  0.362069E+000  0.759691E-004  0.000000E+000 -0.468716E-003
  0.293103E+000  0.000000E+000  0.362069E+000  0.736350E-004  0.000000E+000 -0.451277E-003
  0.327586E+000  0.000000E+000  0.362069E+000  0.671127E-004  0.000000E+000 -0.434300E-003
  0.362069E+000  0.000000E+000  0.362069E+000  0.563456E-004  0.000000E+000 -0.418779E-003
  0.396552E+000  0.000000E+000  0.362069E+000  0.415496E-004  0.000000E+000 -0.405809E-003
  0.431034E+000  0.000000E+000  0.362069E+000  0.232193E-004  0.000000E+000 -0.396618E-003
  0.465517E+000  0.000000E+000  0.362069E+000  0.283378E-005  0.000000E+000 -0.392116E-003
  0.500000E+000  0.000000E+000  0.362069E+000 -0.182904E-004  0.000000E+000 -0.392627E-003
  0.534483E+000  0.000000E+000  0.362069E+000 -0.391679E-004  0.000000E+000 -0.398405E-003
  0.568966E+000  0.000000E+000  0.362069E+000 -0.576372E-004  0.000000E+000 -0.409102E-003
  0.603448E+000  0.000000E+000  0.362069E+000 -0.725762E-004  0.000000E+000 -0.423551E-003
  0.637931E+000  0.000000E+000  0.362069E+000 -0.835385E-004  0.000000E+000 -0.440568E-003
  0.672414E+000  0.000000E+000  0.362069E+000 -0.903334E-004  0.000000E+000 -0.459110E-003
  0.706897E+000  0.000000E+000  0.362069E+000 -0.930126E-004  0.000000E+000 -0.478236E-003
  0.741379E+000  0.000000E+000  0.362069E+000 -0.917966E-004  0.000000E+000 -0.497129E-003
  0.775862E+000  0.000000E+000  0.362069E+000 -0.870192E-004  0.000000E+000 -0.515086E-003
  0.810345E+000  0.000000E+000  0.362069E+000 -0.790860E-004  0.000000E+000 -0.531519E-003
  0.844828E+000  0.000000E+000  0.362069E+000 -0.684458E-004  0.000000E+000 -0.545938E-003
  0.879310E+000  0.000000E+000  0.362069E+000 -0.555719E-004  0.000000E+000 -0.557949E-003
  0.913793E+000  0.000000E+000  0.362069E+000 -0.409504E-004  0.000000E+000 -0.567239E-003
  0.948276E+000  0.000000E+000  0.362069E+000 -0.250747E-004  0.000000E+000 -0.573571E-003
  0.991379E+000  0.000000E+000  0.362069E+000 -0.844268E-005  0.000000E+000 -0.576782E-003
  0.172414E-001  0.000000E+000  0.396552E+000  0.924462E-005  0.000000E+000 -0.533221E-003
  0.517241E-001  0.000000E+000  0.396552E+000  0.274010E-004  0.000000E+000 -0.529495E-003
  0.862069E-001  0.000000E+000  0.396552E+000  0.445637E-004  0.000000E+000 -0.522155E-003
  0.120690E+000  0.000000E+000  0.396552E+000  0.600771E-004  0.000000E+000 -0.511407E-003
  0.155172E+000  0.000000E+000  0.396552E+000  0.732891E-004  0.000000E+000 -0.497549E-003
  0.189655E+000  0.000000E+000  0.396552E+000  0.835553E-004  0.000000E+000 -0.480984E-003
  0.224138E+000  0.000000E+000  0.396552E+000  0.902479E-004  0.000000E+000 -0.462231E-003
  0.258621E+000  0.000000E+000  0.396552E+000  0.927747E-004  0.000000E+000 -0.441946E-003