title = "dataset transp-updrld"
variables = "x", "y", "z", "vx", "vy", "vz"
zone t = "velocities, solution time =  1.000E+01 days        " i =   29, j =   29, k =    1,  f=point
  0.172414E-001  0.000000E+000  0.172414E-001  0.263245E-009  0.000000E+000 -0.967172E-003
  0.517241E-001  0.000000E+000  0.172414E-001  0.782472E-009  0.000000E+000 -0.967165E-003
  0.862069E-001  0.000000E+000  0.172414E-001  0.127922E-008  0.000000E+000 -0.967151E-003
  0.120690E+000  0.000000E+000  0.172414E-001  0.173651E-008  0.000000E+000 -0.967130E-003
  0.155172E+000  0.000000E+000  0.172414E-001  0.213497E-008  0.000000E+000 -0.967104E-003
  0.189655E+000  0.000000E+000  0.172414E-001  0.245296E-008  0.000000E+000 -0.967073E-003
  0.224138E+000  0.000000E+000  0.172414E-001  0.266764E-008  0.000000E+000 -0.967038E-003
  0.258621E+000  0.000000E+000  0.172414E-001  0.275716E-008  0.000000E+000 -0.967000E-003
  0.293103E+000  0.000000E+000  0.172414E-001  0.270358E-008  0.000000E+000 -0.966963E-003
  0.327586E+000  0.000000E+000  0.172414E-001  0.249642E-008  0.000000E+000 -0.966928E-003
  0.362069E+000  0.000000E+000  0.172414E-001  0.213587E-008  0.000000E+000 -0.966896E-003
  0.396552E+000  0.000000E+000  0.172414E-001  0.163517E-008  0.000000E+000 -0.966870E-003
  0.431034E+000  0.000000E+000  0.172414E-001  0.102125E-008  0.000000E+000 -0.966852E-003
  0.465517E+000  0.000000E+000  0.172414E-001  0.333103E-009  0.000000E+000 -0.966843E-003
  0.500000E+000  0.000000E+000  0.172414E-001 -0.381908E-009  0.000000E+000 -0.966843E-003
  0.534483E+000  0.000000E+000  0.172414E-001 -0.107349E-008  0.000000E+000 -0.966853E-003
  0.568966E+000  0.000000E+000  0.172414E-001 -0.169443E-008  0.000000E+000 -0.966872E-003
  0.603448E+000  0.000000E+000  0.172414E-001 -0.220599E-008  0.000000E+000 -0.966899E-003
  0.637931E+000  0.000000E+000  0.172414E-001 -0.258164E-008  0.000000E+000 -0.966931E-003
  0.672414E+000  0.000000E+000  0.172414E-001 -0.280860E-008  0.000000E+000 -0.966968E-003
  0.706897E+000  0.000000E+000  0.172414E-001 -0.288719E-008  0.000000E+000 -0.967007E-003
  0.741379E+000  0.000000E+000  0.172414E-001 -0.282839E-008  0.000000E+000 -0.967046E-003
  0.775862E+000  0.000000E+000  0.172414E-001 -0.265045E-008  0.000000E+000 -0.967084E-003
  0.810345E+000  0.000000E+000  0.172414E-001 -0.237531E-008  0.000000E+000 -0.967118E-003
  0.844828E+000  0.000000E+000  0.172414E-001 -0.202539E-008  0.000000E+000 -0.967148E-003
  0.879310E+000  0.000000E+000  0.172414E-001 -0.162129E-008  0.000000E+000 -0.967173E-003
  0.913793E+000  0.000000E+000  0.172414E-001 -0.118037E-008  0.000000E+000 -0.967192E-003
  0.948276E+000  0.000000E+000  0.172414E-001 -0.716434E-009  0.000000E+000 -0.967205E-003
  0.991379E+000  0.000000E+000  0.172414E-001 -0.240111E-009  0.000000E+000 -0.967212E-003
  0.172414E-001  0.000000E+000  0.517241E-001  0.144535E-008  0.000000E+000 -0.967146E-003
  0.517241E-001  0.000000E+000  0.517241E-001  0.429644E-008  0.000000E+000 -0.967137E-003
  0.862069E-001  0.000000E+000  0.517241E-001  0.702492E-008  0.000000E+000 -0.967119E-003
  0.120690E+000  0.000000E+000  0.517241E-001  0.953796E-008  0.000000E+000 -0.967093E-003
  0.155172E+000  0.000000E+000  0.517241E-001  0.117293E-007  0.000000E+000 -0.967060E-003
  0.189655E+000  0.000000E+000  0.517241E-001  0.134799E-007  0.000000E+000 -0.967020E-003
  0.224138E+000  0.000000E+000  0.517241E-001  0.146640E-007  0.000000E+000 -0.966976E-003
  0.258621E+000  0.000000E+000  0.517241E-001  0.151607E-007  0.000000E+000 -0.966929E-003
  0.293103E+000  0.000000E+000  0.517241E-001  0.148706E-007  0.000000E+000 -0.966882E-003
  0.327586E+000  0.000000E+000  0.517241E-001  0.137350E-007  0.000000E+000 -0.966837E-003
  0.362069E+000  0.000000E+000  0.517241E-001  0.117543E-007  0.000000E+000 -0.966797E-003
  0.396552E+000  0.000000E+000  0.517241E-001  0.900081E-008  0.000000E+000 -0.966765E-003
  0.431034E+000  0.000000E+000  0.517241E-001  0.562262E-008  0.000000E+000 -0.966742E-003
  0.465517E+000  0.000000E+000  0.517241E-001  0.183482E-008  0.000000E+000 -0.966730E-003
  0.500000E+000  0.000000E+000  0.517241E-001 -0.210122E-008  0.000000E+000 -0.966730E-003
  0.534483E+000  0.000000E+000  0.517241E-001 -0.590781E-008  0.000000E+000 -0.966743E-003
  0.568966E+000  0.000000E+000  0.517241E-001 -0.932436E-008  0.000000E+000 -0.966767E-003
  0.603448E+000  0.000000E+000  0.517241E-001 -0.121372E-007  0.000000E+000 -0.966801E-003
  0.637931E+000  0.000000E+000  0.517241E-001 -0.142006E-007  0.000000E+000 -0.966842E-003
  0.672414E+000  0.000000E+000  0.517241E-001 -0.154445E-007  0.000000E+000 -0.966888E-003
  0.706897E+000  0.000000E+000  0.517241E-001 -0.158716E-007  0.000000E+000 -0.966938E-003
  0.741379E+000  0.000000E+000  0.517241E-001 -0.155431E-007  0.000000E+000 -0.966987E-003
  0.775862E+000  0.000000E+000  0.517241E-001 -0.145604E-007  0.000000E+000 -0.967034E-003
  0.810345E+000  0.000000E+000  0.517241E-001 -0.130447E-007  0.000000E+000 -0.967077E-003
  0.844828E+000  0.000000E+000  0.517241E-001 -0.111198E-007  0.000000E+000 -0.967115E-003
  0.879310E+000  0.000000E+000  0.517241E-001 -0.889900E-008  0.000000E+000 -0.967146E-003
  0.913793E+000  0.000000E+000  0.517241E-001 -0.647759E-008  0.000000E+000 -0.967171E-003
  0.948276E+000  0.000000E+000  0.517241E-001 -0.393107E-008  0.000000E+000 -0.967187E-003
  0.991379E+000  0.000000E+000  0.517241E-001 -0.131739E-008  0.000000E+000 -0.967195E-003
  0.172414E-001  0.000000E+000  0.862069E-001  0.417399E-008  0.000000E+000 -0.966782E-003
  0.517241E-001  0.000000E+000  0.862069E-001  0.124098E-007  0.000000E+000 -0.966770E-003
  0.862069E-001  0.000000E+000  0.862069E-001  0.202977E-007  0.000000E+000 -0.966745E-003
  0.120690E+000  0.000000E+000  0.862069E-001  0.275727E-007  0.000000E+000 -0.966708E-003
  0.155172E+000  0.000000E+000  0.862069E-001  0.339291E-007  0.000000E+000 -0.966661E-003
  0.189655E+000  0.000000E+000  0.862069E-001  0.390216E-007  0.000000E+000 -0.966605E-003
  0.224138E+000  0.000000E+000  0.862069E-001  0.424831E-007  0.000000E+000 -0.966543E-003
  0.258621E+000  0.000000E+000  0.862069E-001  0.439581E-007  0.000000E+000 -0.966477E-003
  0.293103E+000  0.000000E+000  0.862069E-001  0.431520E-007  0.000000E+000 -0.966410E-003
  0.327586E+000  0.000000E+000  0.862069E-001  0.398871E-007  0.000000E+000 -0.966346E-003
  0.362069E+000  0.000000E+000  0.862069E-001  0.341585E-007  0.000000E+000 -0.966289E-003
  0.396552E+000  0.000000E+000  0.862069E-001  0.261723E-007  0.000000E+000 -0.966242E-003
  0.431034E+000  0.000000E+000  0.862069E-001  0.163584E-007  0.000000E+000 -0.966210E-003
  0.465517E+000  0.000000E+000  0.862069E-001  0.534503E-008  0.000000E+000 -0.966193E-003
  0.500000E+000  0.000000E+000  0.862069E-001 -0.610223E-008  0.000000E+000 -0.966193E-003
  0.534483E+000  0.000000E+000  0.862069E-001 -0.171693E-007  0.000000E+000 -0.966211E-003
  0.568966E+000  0.000000E+000  0.862069E-001 -0.270927E-007  0.000000E+000 -0.966245E-003
  0.603448E+000  0.000000E+000  0.862069E-001 -0.352487E-007  0.000000E+000 -0.966293E-003
  0.637931E+000  0.000000E+000  0.862069E-001 -0.412135E-007  0.000000E+000 -0.966352E-003
  0.672414E+000  0.000000E+000  0.862069E-001 -0.447885E-007  0.000000E+000 -0.966418E-003
  0.706897E+000  0.000000E+000  0.862069E-001 -0.459872E-007  0.000000E+000 -0.966488E-003
  0.741379E+000  0.000000E+000  0.862069E-001 -0.449948E-007  0.000000E+000 -0.966558E-003
  0.775862E+000  0.000000E+000  0.862069E-001 -0.421120E-007  0.000000E+000 -0.966624E-003
  0.810345E+000  0.000000E+000  0.862069E-001 -0.376959E-007  0.000000E+000 -0.966685E-003
  0.844828E+000  0.000000E+000  0.862069E-001 -0.321084E-007  0.000000E+000 -0.966739E-003
  0.879310E+000  0.000000E+000  0.862069E-001 -0.256785E-007  0.000000E+000 -0.966783E-003
  0.913793E+000  0.000000E+000  0.862069E-001 -0.186814E-007  0.000000E+000 -0.966816E-003
  0.948276E+000  0.000000E+000  0.862069E-001 -0.113331E-007  0.000000E+000 -0.966839E-003
  0.991379E+000  0.000000E+000  0.862069E-001 -0.379722E-008  0.000000E+000 -0.966851E-003
  0.172414E-001  0.000000E+000  0.120690E+000  0.905082E-008  0.000000E+000 -0.965621E-003
  0.517241E-001  0.000000E+000  0.120690E+000  0.269180E-007  0.000000E+000 -0.965603E-003
  0.862069E-001  0.000000E+000  0.120690E+000  0.440561E-007  0.000000E+000 -0.965566E-003
  0.120690E+000  0.000000E+000  0.120690E+000  0.599022E-007  0.000000E+000 -0.965513E-003
  0.155172E+000  0.000000E+000  0.120690E+000  0.737976E-007  0.000000E+000 -0.965444E-003
  0.189655E+000  0.000000E+000  0.120690E+000  0.849888E-007  0.000000E+000 -0.965362E-003
  0.224138E+000  0.000000E+000  0.120690E+000  0.926639E-007  0.000000E+000 -0.965270E-003
  0.258621E+000  0.000000E+000  0.120690E+000  0.960272E-007  0.000000E+000 -0.965172E-003
  0.293103E+000  0.000000E+000  0.120690E+000  0.944076E-007  0.000000E+000 -0.965073E-003
  0.327586E+000  0.000000E+000  0.120690E+000  0.873882E-007  0.000000E+000 -0.964978E-003
  0.362069E+000  0.000000E+000  0.120690E+000  0.749323E-007  0.000000E+000 -0.964893E-003
  0.396552E+000  0.000000E+000  0.120690E+000  0.574765E-007  0.000000E+000 -0.964823E-003
  0.431034E+000  0.000000E+000  0.120690E+000  0.359610E-007  0.000000E+000 -0.964774E-003
  0.465517E+000  0.000000E+000  0.120690E+000  0.117769E-007  0.000000E+000 -0.964749E-003
  0.500000E+000  0.000000E+000  0.120690E+000 -0.133717E-007  0.000000E+000 -0.964750E-003
  0.534483E+000  0.000000E+000  0.120690E+000 -0.376697E-007  0.000000E+000 -0.964777E-003
  0.568966E+000  0.000000E+000  0.120690E+000 -0.594181E-007  0.000000E+000 -0.964828E-003
  0.603448E+000  0.000000E+000  0.120690E+000 -0.772351E-007  0.000000E+000 -0.964899E-003
  0.637931E+000  0.000000E+000  0.120690E+000 -0.901941E-007  0.000000E+000 -0.964986E-003
  0.672414E+000  0.000000E+000  0.120690E+000 -0.978753E-007  0.000000E+000 -0.965084E-003
  0.706897E+000  0.000000E+000  0.120690E+000 -0.100334E-006  0.000000E+000 -0.965187E-003
  0.741379E+000  0.000000E+000  0.120690E+000 -0.980052E-007  0.000000E+000 -0.965290E-003
  0.775862E+000  0.000000E+000  0.120690E+000 -0.915737E-007  0.000000E+000 -0.965388E-003
  0.810345E+000  0.000000E+000  0.120690E+000 -0.818409E-007  0.000000E+000 -0.965477E-003
  0.844828E+000  0.000000E+000  0.120690E+000 -0.696094E-007  0.000000E+000 -0.965555E-003
  0.879310E+000  0.000000E+000  0.120690E+000 -0.556008E-007  0.000000E+000 -0.965619E-003
  0.913793E+000  0.000000E+000  0.120690E+000 -0.404108E-007  0.000000E+000 -0.965668E-003
  0.948276E+000  0.000000E+000  0.120690E+000 -0.244985E-007  0.000000E+000 -0.965701E-003
  0.991379E+000  0.000000E+000  0.120690E+000 -0.820549E-008  0.000000E+000 -0.965718E-003
  0.172414E-001  0.000000E+000  0.155172E+000  0.170036E-007  0.000000E+000 -0.963127E-003
  0.517241E-001  0.000000E+000  0.155172E+000  0.505955E-007  0.000000E+000 -0.963100E-003
  0.862069E-001  0.000000E+000  0.155172E+000  0.828892E-007  0.000000E+000 -0.963047E-003
  0.120690E+000  0.000000E+000  0.155172E+000  0.112861E-006  0.000000E+000 -0.962968E-003
  0.155172E+000  0.000000E+000  0.155172E+000  0.139285E-006  0.000000E+000 -0.962866E-003
  0.189655E+000  0.000000E+000  0.155172E+000  0.160734E-006  0.000000E+000 -0.962745E-003
  0.224138E+000  0.000000E+000  0.155172E+000  0.175637E-006  0.000000E+000 -0.962609E-003
  0.258621E+000  0.000000E+000  0.155172E+000  0.182429E-006  0.000000E+000 -0.962462E-003
  0.293103E+000  0.000000E+000  0.155172E+000  0.179758E-006  0.000000E+000 -0.962314E-003
  0.327586E+000  0.000000E+000  0.155172E+000  0.166747E-006  0.000000E+000 -0.962172E-003
  0.362069E+000  0.000000E+000  0.155172E+000  0.143253E-006  0.000000E+000 -0.962043E-003
  0.396552E+000  0.000000E+000  0.155172E+000  0.110063E-006  0.000000E+000 -0.961939E-003
  0.431034E+000  0.000000E+000  0.155172E+000  0.689661E-007  0.000000E+000 -0.961864E-003
  0.465517E+000  0.000000E+000  0.155172E+000  0.226592E-007  0.000000E+000 -0.961826E-003
  0.500000E+000  0.000000E+000  0.155172E+000 -0.255288E-007  0.000000E+000 -0.961827E-003
  0.534483E+000  0.000000E+000  0.155172E+000 -0.720435E-007  0.000000E+000 -0.961867E-003
  0.568966E+000  0.000000E+000  0.155172E+000 -0.113565E-006  0.000000E+000 -0.961944E-003
  0.603448E+000  0.000000E+000  0.155172E+000 -0.147415E-006  0.000000E+000 -0.962052E-003
  0.637931E+000  0.000000E+000  0.155172E+000 -0.171829E-006  0.000000E+000 -0.962183E-003
  0.672414E+000  0.000000E+000  0.155172E+000 -0.186054E-006  0.000000E+000 -0.962330E-003
  0.706897E+000  0.000000E+000  0.155172E+000 -0.190270E-006  0.000000E+000 -0.962484E-003
  0.741379E+000  0.000000E+000  0.155172E+000 -0.185388E-006  0.000000E+000 -0.962636E-003
  0.775862E+000  0.000000E+000  0.155172E+000 -0.172790E-006  0.000000E+000 -0.962781E-003
  0.810345E+000  0.000000E+000  0.155172E+000 -0.154058E-006  0.000000E+000 -0.962913E-003
  0.844828E+000  0.000000E+000  0.155172E+000 -0.130750E-006  0.000000E+000 -0.963027E-003
  0.879310E+000  0.000000E+000  0.155172E+000 -0.104243E-006  0.000000E+000 -0.963121E-003
  0.913793E+000  0.000000E+000  0.155172E+000 -0.756528E-007  0.000000E+000 -0.963192E-003
  0.948276E+000  0.000000E+000  0.155172E+000 -0.458167E-007  0.000000E+000 -0.963241E-003
  0.991379E+000  0.000000E+000  0.155172E+000 -0.153378E-007  0.000000E+000 -0.963265E-003
  0.172414E-001  0.000000E+000  0.189655E+000  0.293864E-007  0.000000E+000 -0.958730E-003
  0.517241E-001  0.000000E+000  0.189655E+000  0.874998E-007  0.000000E+000 -0.958691E-003
  0.862069E-001  0.000000E+000  0.189655E+000  0.143536E-006  0.000000E+000 -0.958613E-003
  0.120690E+000  0.000000E+000  0.189655E+000  0.195805E-006  0.000000E+000 -0.958498E-003
  0.155172E+000  0.000000E+000  0.189655E+000  0.242223E-006  0.000000E+000 -0.958349E-003
  0.189655E+000  0.000000E+000  0.189655E+000  0.280290E-006  0.000000E+000 -0.958170E-003
  0.224138E+000  0.000000E+000  0.189655E+000  0.307194E-006  0.000000E+000 -0.957968E-003
  0.258621E+000  0.000000E+000  0.189655E+000  0.320060E-006  0.000000E+000 -0.957750E-003
  0.293103E+000  0.000000E+000  0.189655E+000  0.316337E-006  0.000000E+000 -0.957529E-003
  0.327586E+000  0.000000E+000  0.189655E+000  0.294286E-006  0.000000E+000 -0.957314E-003
  0.362069E+000  0.000000E+000  0.189655E+000  0.253475E-006  0.000000E+000 -0.957121E-003
  0.396552E+000  0.000000E+000  0.189655E+000  0.195179E-006  0.000000E+000 -0.956962E-003
  0.431034E+000  0.000000E+000  0.189655E+000  0.122544E-006  0.000000E+000 -0.956849E-003
  0.465517E+000  0.000000E+000  0.189655E+000  0.404252E-007  0.000000E+000 -0.956791E-003
  0.500000E+000  0.000000E+000  0.189655E+000 -0.451130E-007  0.000000E+000 -0.956792E-003
  0.534483E+000  0.000000E+000  0.189655E+000 -0.127576E-006  0.000000E+000 -0.956854E-003
  0.568966E+000  0.000000E+000  0.189655E+000 -0.200918E-006  0.000000E+000 -0.956970E-003
  0.603448E+000  0.000000E+000  0.189655E+000 -0.260313E-006  0.000000E+000 -0.957132E-003
  0.637931E+000  0.000000E+000  0.189655E+000 -0.302662E-006  0.000000E+000 -0.957330E-003
  0.672414E+000  0.000000E+000  0.189655E+000 -0.326748E-006  0.000000E+000 -0.957550E-003
  0.706897E+000  0.000000E+000  0.189655E+000 -0.333066E-006  0.000000E+000 -0.957779E-003
  0.741379E+000  0.000000E+000  0.189655E+000 -0.323426E-006  0.000000E+000 -0.958005E-003
  0.775862E+000  0.000000E+000  0.189655E+000 -0.300437E-006  0.000000E+000 -0.958219E-003
  0.810345E+000  0.000000E+000  0.189655E+000 -0.267012E-006  0.000000E+000 -0.958412E-003
  0.844828E+000  0.000000E+000  0.189655E+000 -0.225957E-006  0.000000E+000 -0.958578E-003
  0.879310E+000  0.000000E+000  0.189655E+000 -0.179701E-006  0.000000E+000 -0.958714E-003
  0.913793E+000  0.000000E+000  0.189655E+000 -0.130158E-006  0.000000E+000 -0.958818E-003
  0.948276E+000  0.000000E+000  0.189655E+000 -0.787188E-007  0.000000E+000 -0.958888E-003
  0.991379E+000  0.000000E+000  0.189655E+000 -0.263338E-007  0.000000E+000 -0.958923E-003
  0.172414E-001  0.000000E+000  0.224138E+000  0.480713E-007  0.000000E+000 -0.951855E-003
  0.517241E-001  0.000000E+000  0.224138E+000  0.143257E-006  0.000000E+000 -0.951798E-003
  0.862069E-001  0.000000E+000  0.224138E+000  0.235392E-006  0.000000E+000 -0.951686E-003
  0.120690E+000  0.000000E+000  0.224138E+000  0.321878E-006  0.000000E+000 -0.951519E-003
  0.155172E+000  0.000000E+000  0.224138E+000  0.399381E-006  0.000000E+000 -0.951303E-003
  0.189655E+000  0.000000E+000  0.224138E+000  0.463757E-006  0.000000E+000 -0.951042E-003
  0.224138E+000  0.000000E+000  0.224138E+000  0.510204E-006  0.000000E+000 -0.950744E-003
  0.258621E+000  0.000000E+000  0.224138E+000  0.533667E-006  0.000000E+000 -0.950423E-003
  0.293103E+000  0.000000E+000  0.224138E+000  0.529516E-006  0.000000E+000 -0.950094E-003
  0.327586E+000  0.000000E+000  0.224138E+000  0.494415E-006  0.000000E+000 -0.949773E-003
  0.362069E+000  0.000000E+000  0.224138E+000  0.427254E-006  0.000000E+000 -0.949483E-003
  0.396552E+000  0.000000E+000  0.224138E+000  0.329916E-006  0.000000E+000 -0.949243E-003
  0.431034E+000  0.000000E+000  0.224138E+000  0.207648E-006  0.000000E+000 -0.949072E-003
  0.465517E+000  0.000000E+000  0.224138E+000  0.688176E-007  0.000000E+000 -0.948983E-003
  0.500000E+000  0.000000E+000  0.224138E+000 -0.759794E-007  0.000000E+000 -0.948985E-003
  0.534483E+000  0.000000E+000  0.224138E+000 -0.215347E-006  0.000000E+000 -0.949077E-003
  0.568966E+000  0.000000E+000  0.224138E+000 -0.338718E-006  0.000000E+000 -0.949253E-003
  0.603448E+000  0.000000E+000  0.224138E+000 -0.437775E-006  0.000000E+000 -0.949498E-003
  0.637931E+000  0.000000E+000  0.224138E+000 -0.507349E-006  0.000000E+000 -0.949794E-003
  0.672414E+000  0.000000E+000  0.224138E+000 -0.545653E-006  0.000000E+000 -0.950122E-003
  0.706897E+000  0.000000E+000  0.224138E+000 -0.553912E-006  0.000000E+000 -0.950461E-003
  0.741379E+000  0.000000E+000  0.224138E+000 -0.535580E-006  0.000000E+000 -0.950794E-003
  0.775862E+000  0.000000E+000  0.224138E+000 -0.495400E-006  0.000000E+000 -0.951106E-003
  0.810345E+000  0.000000E+000  0.224138E+000 -0.438507E-006  0.000000E+000 -0.951387E-003
  0.844828E+000  0.000000E+000  0.224138E+000 -0.369726E-006  0.000000E+000 -0.951627E-003
  0.879310E+000  0.000000E+000  0.224138E+000 -0.293116E-006  0.000000E+000 -0.951823E-003
  0.913793E+000  0.000000E+000  0.224138E+000 -0.211779E-006  0.000000E+000 -0.951971E-003
  0.948276E+000  0.000000E+000  0.224138E+000 -0.127862E-006  0.000000E+000 -0.952070E-003
  0.991379E+000  0.000000E+000  0.224138E+000 -0.427359E-007  0.000000E+000 -0.952120E-003
  0.172414E-001  0.000000E+000  0.258621E+000  0.755746E-007  0.000000E+000 -0.941956E-003
  0.517241E-001  0.000000E+000  0.258621E+000  0.225454E-006  0.000000E+000 -0.941876E-003
  0.862069E-001  0.000000E+000  0.258621E+000  0.371208E-006  0.000000E+000 -0.941715E-003
  0.120690E+000  0.000000E+000  0.258621E+000  0.509083E-006  0.000000E+000 -0.941477E-003
  0.155172E+000  0.000000E+000  0.258621E+000  0.633995E-006  0.000000E+000 -0.941166E-003
  0.189655E+000  0.000000E+000  0.258621E+000  0.739343E-006  0.000000E+000 -0.940788E-003
  0.224138E+000  0.000000E+000  0.258621E+000  0.817195E-006  0.000000E+000 -0.940356E-003
  0.258621E+000  0.000000E+000  0.258621E+000  0.858930E-006  0.000000E+000 -0.939885E-003
  0.293103E+000  0.000000E+000  0.258621E+000  0.856355E-006  0.000000E+000 -0.939398E-003
  0.327586E+000  0.000000E+000  0.258621E+000  0.803227E-006  0.000000E+000 -0.938922E-003
  0.362069E+000  0.000000E+000  0.258621E+000  0.696947E-006  0.000000E+000 -0.938487E-003
  0.396552E+000  0.000000E+000  0.258621E+000  0.540031E-006  0.000000E+000 -0.938126E-003
  0.431034E+000  0.000000E+000  0.258621E+000  0.340895E-006  0.000000E+000 -0.937867E-003
  0.465517E+000  0.000000E+000  0.258621E+000  0.113551E-006  0.000000E+000 -0.937733E-003
  0.500000E+000  0.000000E+000  0.258621E+000 -0.123952E-006  0.000000E+000 -0.937735E-003
  0.534483E+000  0.000000E+000  0.258621E+000 -0.352096E-006  0.000000E+000 -0.937874E-003
  0.568966E+000  0.000000E+000  0.258621E+000 -0.552873E-006  0.000000E+000 -0.938138E-003
  0.603448E+000  0.000000E+000  0.258621E+000 -0.712354E-006  0.000000E+000 -0.938506E-003
  0.637931E+000  0.000000E+000  0.258621E+000 -0.822245E-006  0.000000E+000 -0.938948E-003
  0.672414E+000  0.000000E+000  0.258621E+000 -0.880190E-006  0.000000E+000 -0.939434E-003
  0.706897E+000  0.000000E+000  0.258621E+000 -0.888975E-006  0.000000E+000 -0.939933E-003
  0.741379E+000  0.000000E+000  0.258621E+000 -0.855045E-006  0.000000E+000 -0.940420E-003
  0.775862E+000  0.000000E+000  0.258621E+000 -0.786793E-006  0.000000E+000 -0.940872E-003
  0.810345E+000  0.000000E+000  0.258621E+000 -0.693008E-006  0.000000E+000 -0.941275E-003
  0.844828E+000  0.000000E+000  0.258621E+000 -0.581700E-006  0.000000E+000 -0.941619E-003
  0.879310E+000  0.000000E+000  0.258621E+000 -0.459408E-006  0.000000E+000 -0.941896E-003
  0.913793E+000  0.000000E+000  0.258621E+000 -0.330924E-006  0.000000E+000 -0.942105E-003
  0.948276E+000  0.000000E+000  0.258621E+000 -0.199379E-006  0.000000E+000 -0.942245E-003
  0.991379E+000  0.000000E+000  0.258621E+000 -0.665680E-007  0.000000E+000 -0.942314E-003
  0.172414E-001  0.000000E+000  0.293103E+000  0.115203E-006  0.000000E+000 -0.928545E-003
  0.517241E-001  0.000000E+000  0.293103E+000  0.344102E-006  0.000000E+000 -0.928432E-003
  0.862069E-001  0.000000E+000  0.293103E+000  0.567944E-006  0.000000E+000 -0.928206E-003
  0.120690E+000  0.000000E+000  0.293103E+000  0.781637E-006  0.000000E+000 -0.927870E-003
  0.155172E+000  0.000000E+000  0.293103E+000  0.977748E-006  0.000000E+000 -0.927428E-003
  0.189655E+000  0.000000E+000  0.293103E+000  0.114610E-005  0.000000E+000 -0.926888E-003
  0.224138E+000  0.000000E+000  0.293103E+000  0.127394E-005  0.000000E+000 -0.926264E-003
  0.258621E+000  0.000000E+000  0.293103E+000  0.134688E-005  0.000000E+000 -0.925579E-003
  0.293103E+000  0.000000E+000  0.293103E+000  0.135069E-005  0.000000E+000 -0.924865E-003
  0.327586E+000  0.000000E+000  0.293103E+000  0.127392E-005  0.000000E+000 -0.924160E-003
  0.362069E+000  0.000000E+000  0.293103E+000  0.111085E-005  0.000000E+000 -0.923513E-003
  0.396552E+000  0.000000E+000  0.293103E+000  0.864366E-006  0.000000E+000 -0.922971E-003
  0.431034E+000  0.000000E+000  0.293103E+000  0.547534E-006  0.000000E+000 -0.922580E-003
  0.465517E+000  0.000000E+000  0.293103E+000  0.183362E-006  0.000000E+000 -0.922376E-003
  0.500000E+000  0.000000E+000  0.293103E+000 -0.197864E-006  0.000000E+000 -0.922379E-003
  0.534483E+000  0.000000E+000  0.293103E+000 -0.563180E-006  0.000000E+000 -0.922589E-003
  0.568966E+000  0.000000E+000  0.293103E+000 -0.882363E-006  0.000000E+000 -0.922986E-003
  0.603448E+000  0.000000E+000  0.293103E+000 -0.113254E-005  0.000000E+000 -0.923535E-003
  0.637931E+000  0.000000E+000  0.293103E+000 -0.130081E-005  0.000000E+000 -0.924193E-003
  0.672414E+000  0.000000E+000  0.293103E+000 -0.138456E-005  0.000000E+000 -0.924909E-003
  0.706897E+000  0.000000E+000  0.293103E+000 -0.138980E-005  0.000000E+000 -0.925639E-003
  0.741379E+000  0.000000E+000  0.293103E+000 -0.132831E-005  0.000000E+000 -0.926344E-003
  0.775862E+000  0.000000E+000  0.293103E+000 -0.121468E-005  0.000000E+000 -0.926994E-003
  0.810345E+000  0.000000E+000  0.293103E+000 -0.106359E-005  0.000000E+000 -0.927567E-003
  0.844828E+000  0.000000E+000  0.293103E+000 -0.888015E-006  0.000000E+000 -0.928052E-003
  0.879310E+000  0.000000E+000  0.293103E+000 -0.698138E-006  0.000000E+000 -0.928441E-003
  0.913793E+000  0.000000E+000  0.293103E+000 -0.501083E-006  0.000000E+000 -0.928732E-003
  0.948276E+000  0.000000E+000  0.293103E+000 -0.301148E-006  0.000000E+000 -0.928925E-003
  0.991379E+000  0.000000E+000  0.293103E+000 -0.100419E-006  0.000000E+000 -0.929021E-003
  0.172414E-001  0.000000E+000  0.327586E+000  0.171197E-006  0.000000E+000 -0.911210E-003
  0.517241E-001  0.000000E+000  0.327586E+000  0.512110E-006  0.000000E+000 -0.911054E-003
  0.862069E-001  0.000000E+000  0.327586E+000  0.847689E-006  0.000000E+000 -0.910742E-003
  0.120690E+000  0.000000E+000  0.327586E+000  0.117151E-005  0.000000E+000 -0.910273E-003
  0.155172E+000  0.000000E+000  0.327586E+000  0.147317E-005  0.000000E+000 -0.909652E-003
  0.189655E+000  0.000000E+000  0.327586E+000  0.173743E-005  0.000000E+000 -0.908888E-003
  0.224138E+000  0.000000E+000  0.327586E+000  0.194424E-005  0.000000E+000 -0.907996E-003
  0.258621E+000  0.000000E+000  0.327586E+000  0.207005E-005  0.000000E+000 -0.907008E-003
  0.293103E+000  0.000000E+000  0.327586E+000  0.209051E-005  0.000000E+000 -0.905966E-003
  0.327586E+000  0.000000E+000  0.327586E+000  0.198487E-005  0.000000E+000 -0.904929E-003
  0.362069E+000  0.000000E+000  0.327586E+000  0.174123E-005  0.000000E+000 -0.903967E-003
  0.396552E+000  0.000000E+000  0.327586E+000  0.136174E-005  0.000000E+000 -0.903155E-003
  0.431034E+000  0.000000E+000  0.327586E+000  0.866141E-006  0.000000E+000 -0.902567E-003
  0.465517E+000  0.000000E+000  0.327586E+000  0.291683E-006  0.000000E+000 -0.902258E-003
  0.500000E+000  0.000000E+000  0.327586E+000 -0.311219E-006  0.000000E+000 -0.902261E-003
  0.534483E+000  0.000000E+000  0.327586E+000 -0.887261E-006  0.000000E+000 -0.902577E-003
  0.568966E+000  0.000000E+000  0.327586E+000 -0.138613E-005  0.000000E+000 -0.903173E-003
  0.603448E+000  0.000000E+000  0.327586E+000 -0.177074E-005  0.000000E+000 -0.903994E-003
  0.637931E+000  0.000000E+000  0.327586E+000 -0.202166E-005  0.000000E+000 -0.904968E-003
  0.672414E+000  0.000000E+000  0.327586E+000 -0.213710E-005  0.000000E+000 -0.906020E-003
  0.706897E+000  0.000000E+000  0.327586E+000 -0.212943E-005  0.000000E+000 -0.907081E-003
  0.741379E+000  0.000000E+000  0.327586E+000 -0.201994E-005  0.000000E+000 -0.908095E-003
  0.775862E+000  0.000000E+000  0.327586E+000 -0.183353E-005  0.000000E+000 -0.909019E-003
  0.810345E+000  0.000000E+000  0.327586E+000 -0.159432E-005  0.000000E+000 -0.909826E-003
  0.844828E+000  0.000000E+000  0.327586E+000 -0.132280E-005  0.000000E+000 -0.910501E-003
  0.879310E+000  0.000000E+000  0.327586E+000 -0.103441E-005  0.000000E+000 -0.911039E-003
  0.913793E+000  0.000000E+000  0.327586E+000 -0.739314E-006  0.000000E+000 -0.911438E-003
  0.948276E+000  0.000000E+000  0.327586E+000 -0.443032E-006  0.000000E+000 -0.911701E-003
  0.991379E+000  0.000000E+000  0.327586E+000 -0.147511E-006  0.000000E+000 -0.911832E-003
  0.172414E-001  0.000000E+000  0.362069E+000  0.248853E-006  0.000000E+000 -0.889636E-003
  0.517241E-001  0.000000E+000  0.362069E+000  0.745694E-006  0.000000E+000 -0.889423E-003
  0.862069E-001  0.000000E+000  0.362069E+000  0.123852E-005  0.000000E+000 -0.888996E-003
  0.120690E+000  0.000000E+000  0.362069E+000  0.172004E-005  0.000000E+000 -0.888353E-003
  0.155172E+000  0.000000E+000  0.362069E+000  0.217636E-005  0.000000E+000 -0.887492E-003
  0.189655E+000  0.000000E+000  0.362069E+000  0.258537E-005  0.000000E+000 -0.886421E-003
  0.224138E+000  0.000000E+000  0.362069E+000  0.291623E-005  0.000000E+000 -0.885159E-003
  0.258621E+000  0.000000E+000  0.362069E+000  0.313096E-005  0.000000E+000 -0.883744E-003
  0.293103E+000  0.000000E+000  0.362069E+000  0.318853E-005  0.000000E+000 -0.882233E-003
  0.327586E+000  0.000000E+000  0.362069E+000  0.305177E-005  0.000000E+000 -0.880712E-003
  0.362069E+000  0.000000E+000  0.362069E+000  0.269664E-005  0.000000E+000 -0.879285E-003
  0.396552E+000  0.000000E+000  0.362069E+000  0.212187E-005  0.000000E+000 -0.878070E-003
  0.431034E+000  0.000000E+000  0.362069E+000  0.135618E-005  0.000000E+000 -0.877182E-003
  0.465517E+000  0.000000E+000  0.362069E+000  0.459357E-006  0.000000E+000 -0.876713E-003
  0.500000E+000  0.000000E+000  0.362069E+000 -0.484893E-006  0.000000E+000 -0.876717E-003
  0.534483E+000  0.000000E+000  0.362069E+000 -0.138384E-005  0.000000E+000 -0.877194E-003
  0.568966E+000  0.000000E+000  0.362069E+000 -0.215394E-005  0.000000E+000 -0.878091E-003
  0.603448E+000  0.000000E+000  0.362069E+000 -0.273564E-005  0.000000E+000 -0.879317E-003
  0.637931E+000  0.000000E+000  0.362069E+000 -0.310066E-005  0.000000E+000 -0.880758E-003
  0.672414E+000  0.000000E+000  0.362069E+000 -0.325082E-005  0.000000E+000 -0.882297E-003
  0.706897E+000  0.000000E+000  0.362069E+000 -0.321085E-005  0.000000E+000 -0.883831E-003
  0.741379E+000  0.000000E+000  0.362069E+000 -0.301873E-005  0.000000E+000 -0.885278E-003
  0.775862E+000  0.000000E+000  0.362069E+000 -0.271643E-005  0.000000E+000 -0.886580E-003
  0.810345E+000  0.000000E+000  0.362069E+000 -0.234286E-005  0.000000E+000 -0.887704E-003
  0.844828E+000  0.000000E+000  0.362069E+000 -0.192969E-005  0.000000E+000 -0.888633E-003
  0.879310E+000  0.000000E+000  0.362069E+000 -0.149963E-005  0.000000E+000 -0.889365E-003
  0.913793E+000  0.000000E+000  0.362069E+000 -0.106659E-005  0.000000E+000 -0.889905E-003
  0.948276E+000  0.000000E+000  0.362069E+000 -0.636999E-006  0.000000E+000 -0.890259E-003
  0.991379E+000  0.000000E+000  0.362069E+000 -0.211728E-006  0.000000E+000 -0.890434E-003
  0.172414E-001  0.000000E+000  0.396552E+000  0.354550E-006  0.000000E+000 -0.863609E-003
  0.517241E-001  0.000000E+000  0.396552E+000  0.106456E-005  0.000000E+000 -0.863325E-003
  0.862069E-001  0.000000E+000  0.396552E+000  0.177511E-005  0.000000E+000 -0.862750E-003
  0.120690E+000  0.000000E+000  0.396552E+000  0.247933E-005  0.000000E+000 -0.861878E-003
  0.155172E+000  0.000000E+000  0.396552E+000  0.315985E-005  0.000000E+000 -0.860700E-003
  0.189655E+000  0.000000E+000  0.396552E+000  0.378560E-005  0.000000E+000 -0.859219E-003
  0.224138E+000  0.000000E+000  0.396552E+000  0.431025E-005  0.000000E+000 -0.857449E-003
  0.258621E+000  0.000000E+000  0.396552E+000  0.467364E-005  0.000000E+000 -0.855436E-003